% Model:              CV cnn.mph
% Version:            COMSOL 6.2.0.339
% Date:               Nov 12 2024, 17:34
% Dimension:          1
% Nodes:              281
% Expressions:        1
% Description:        Global
% R                       Value
-0.42                     8.341808331234753E-11
-0.415                    -7.020983313447125E-10
-0.41                     -4.053440966886672E-10
-0.40499999999999997      -1.626064484315522E-10
-0.39999999999999997      5.302623249902093E-12
-0.39499999999999996      8.751493175377218E-11
-0.38999999999999996      9.044771167090875E-11
-0.385                    9.338049159407568E-11
-0.38                     9.631327151629757E-11
-0.375                    9.906713582583676E-11
-0.37                     9.746557600917014E-11
-0.365                    9.586401618842125E-11
-0.36                     9.426245637131149E-11
-0.355                    9.266089654768076E-11
-0.35                     9.105933672802841E-11
-0.345                    8.945777690717795E-11
-0.33999999999999997      8.785621708654638E-11
-0.33499999999999996      8.625465726861104E-11
-0.33                     9.320445125763625E-11
-0.325                    1.9919978887596248E-10
-0.32                     3.051951264930152E-10
-0.315                    4.1119046410573567E-10
-0.31                     5.171858017262651E-10
-0.305                    6.231811393496242E-10
-0.3                      7.291764769609405E-10
-0.29500000000000004      8.351718145815486E-10
-0.29                     9.411671521956588E-10
-0.285                    1.0471624898128325E-9
-0.28                     1.1531578274331608E-9
-0.275                    1.2591531650531719E-9
-0.27                     1.365148502672147E-9
-0.265                    1.471143840289714E-9
-0.26                     1.5771391779117652E-9
-0.255                    1.683134515526064E-9
-0.24999999999999997      1.789129853147714E-9
-0.245                    1.89512519076361E-9
-0.24000000000000002      2.1580838561426226E-9
-0.235                    3.2481032336203794E-9
-0.23                     4.338122611098941E-9
-0.22499999999999998      5.428141988572869E-9
-0.22                     6.518161366051202E-9
-0.215                    8.357699983970836E-9
-0.21                     1.055073109696E-8
-0.20500000000000002      1.274376220994152E-8
-0.2                      1.6076091607316436E-8
-0.19500000000000003      1.9666249424035346E-8
-0.19                     2.32564072407601E-8
-0.18500000000000003      2.9292940554379464E-8
-0.17999999999999997      3.545445313709466E-8
-0.175                    4.3049015185162645E-8
-0.17000000000000004      5.304488393033505E-8
-0.16499999999999998      6.465969515775966E-8
-0.15999999999999998      7.913548899414684E-8
-0.15499999999999997      9.743604356769789E-8
-0.14999999999999997      1.1936170923987034E-7
-0.14500000000000002      1.4587395282729868E-7
-0.14                     1.7778966708334493E-7
-0.135                    2.173798782510493E-7
-0.13                     2.643003713625849E-7
-0.125                    3.2172051842707324E-7
-0.12                     3.910436389485826E-7
-0.11499999999999999      4.786452282562632E-7
-0.11000000000000004      5.817764465632596E-7
-0.10499999999999998      7.054828958473117E-7
-0.10000000000000003      8.541672249451095E-7
-0.09500000000000003      1.0326393735258123E-6
-0.09000000000000002      1.2465681850128645E-6
-0.08500000000000002      1.5024854468850687E-6
-0.07999999999999996      1.8078344976367127E-6
-0.07500000000000001      2.1709999846520587E-6
-0.07                     2.601271108525722E-6
-0.065                    3.1090948766354052E-6
-0.06000000000000005      3.7049721084541665E-6
-0.05499999999999999      4.3987872855876025E-6
-0.04999999999999999      5.200349397968158E-6
-0.04500000000000004      6.117963416432387E-6
-0.040000000000000036     7.157277299473611E-6
-0.03500000000000003      8.319882253612299E-6
-0.02999999999999997      9.601748277708211E-6
-0.025000000000000022     1.0991240668377148E-5
-0.020000000000000018     1.246719073424436E-5
-0.015000000000000069     1.3994724588666369E-5
-0.010000000000000009     1.556256599900593E-5
-0.0050000000000000044    1.711164181438965E-5
0                         1.85900419507721E-5
0.004999999999999949      1.9994884644764542E-5
0.009999999999999953      2.1196084875298096E-5
0.015000000000000013      2.225379238393631E-5
0.019999999999999962      2.3043067134057397E-5
0.024999999999999967      2.3610806237504634E-5
0.029999999999999916      2.3958902245801908E-5
0.03499999999999992       2.4087098954437548E-5
0.03999999999999998       2.4041408473168364E-5
0.044999999999999984      2.3814807117720392E-5
0.04999999999999993       2.3474815646638957E-5
0.05499999999999994       2.3017977079661923E-5
0.06000000000000005       2.250049780805714E-5
0.06500000000000006       2.1926851225976103E-5
0.07                      2.133121447785308E-5
0.07500000000000001       2.072276350025478E-5
0.0799999999999999        2.0117445441483236E-5
0.08500000000000002       1.9524577591096E-5
0.09000000000000002       1.8949314677905452E-5
0.09500000000000003       1.839842548215817E-5
0.10000000000000003       1.787212572876083E-5
0.10499999999999993       1.7373949878575062E-5
0.11000000000000004       1.6902556392387626E-5
0.11500000000000005       1.6458700169678157E-5
0.12000000000000005       1.604103330700588E-5
0.12499999999999994       1.5648362319383788E-5
0.12999999999999995       1.527985548580685E-5
0.13500000000000006       1.4933163327112129E-5
0.13999999999999996       1.4608020707516305E-5
0.14499999999999996       1.4301527340931147E-5
0.14999999999999997       1.4013864818635901E-5
0.15499999999999997       1.3741987825327217E-5
0.15999999999999998       1.3485599183660359E-5
0.16499999999999998       1.3239045852251656E-5
0.16999999999999998       1.3004680349918785E-5
0.175                     1.2782502676661762E-5
0.18                      1.2572230535202032E-5
0.185                     1.2372435547108414E-5
0.19                      1.218409870993708E-5
0.195                     1.2007220023688034E-5
0.1999999999999999        1.1841237420470139E-5
0.2049999999999999        1.1678379935262046E-5
0.21000000000000002       1.1523598567568874E-5
0.21500000000000002       1.1376893317390732E-5
0.21999999999999992       1.1238264184727556E-5
0.22499999999999992       1.1102022741456196E-5
0.22999999999999993       1.097146667418931E-5
0.23499999999999993       1.0846697297352284E-5
0.23999999999999994       1.0727714610945155E-5
0.24499999999999994       1.0611391393642635E-5
0.24999999999999994       1.0499072341750714E-5
0.25499999999999995       1.0391107608849553E-5
0.26000000000000006       1.028749719493902E-5
0.26500000000000007       1.018526543377989E-5
0.26999999999999996       1.008513209140746E-5
0.27499999999999997       9.987780376387914E-6
0.27999999999999997       9.89321028872138E-6
0.27499999999999997       9.801421828407792E-6
0.26999999999999996       9.712414995447152E-6
0.26500000000000007       9.62618978983945E-6
0.26000000000000006       9.54274621158469E-6
0.25500000000000006       9.460566006136207E-6
0.24999999999999994       9.379563697633132E-6
0.24499999999999994       9.300739699994732E-6
0.23999999999999994       9.224094013220911E-6
0.23499999999999993       9.149626637311776E-6
0.23000000000000004       9.07733757226728E-6
0.22500000000000003       9.00722681808741E-6
0.22000000000000003       8.939294374772156E-6
0.21500000000000002       8.871715659468639E-6
0.21000000000000002       8.802436943602758E-6
0.20500000000000013       8.73418960701489E-6
0.1999999999999999        8.666973649705016E-6
0.195                     8.600789071673167E-6
0.19                      8.535635872919285E-6
0.185                     8.471514053443473E-6
0.18                      8.40842361324566E-6
0.17499999999999988       8.344485215885735E-6
0.1700000000000001        8.270762590694565E-6
0.16499999999999987       8.195409878536041E-6
0.15999999999999998       8.118427079410122E-6
0.15499999999999997       8.039814193316856E-6
0.14999999999999997       7.959571220256247E-6
0.14499999999999996       7.877698160228276E-6
0.13999999999999996       7.794195013232881E-6
0.13499999999999984       7.709061779270212E-6
0.13000000000000006       7.582148750007188E-6
0.12499999999999994       7.44329500155103E-6
0.12000000000000005       7.2937478012808145E-6
0.11499999999999994       7.133507149196477E-6
0.10999999999999993       6.94849138002463E-6
0.10499999999999993       6.716730982625218E-6
0.10000000000000003       6.458422298648997E-6
0.09500000000000003       6.173565328095994E-6
0.09000000000000002       5.862160070966213E-6
0.08499999999999991       5.453884207650047E-6
0.08000000000000013       4.964851026214828E-6
0.07499999999999996       4.4142234699474186E-6
0.07000000000000012       3.764848262815315E-6
0.06499999999999995       3.0332360632288125E-6
0.06                      2.209383775580307E-6
0.05499999999999999       1.2461377944668461E-6
0.050000000000000044      1.686922218230866E-7
0.04500000000000004       -1.029517872860326E-6
0.040000000000000036      -2.349240999807512E-6
0.03499999999999992       -3.7798380408174488E-6
0.030000000000000082      -5.284443885514973E-6
0.024999999999999967      -6.88124538763348E-6
0.019999999999999796      -8.474369250206617E-6
0.015000000000000013      -1.0058141368884432E-5
0.009999999999999842      -1.1614305333617875E-5
0.00500000000000006       -1.2994824352510742E-5
-1.1102230246251565E-16   -1.427388917361007E-5
-0.00500000000000006      -1.5329549682566183E-5
-0.010000000000000064     -1.6160919401619257E-5
-0.015000000000000069     -1.6779042737877812E-5
-0.01999999999999985      -1.7137267627989772E-5
-0.025000000000000022     -1.7263129328063545E-5
-0.030000000000000138     -1.7222767329654703E-5
-0.034999999999999976     -1.6996338195365658E-5
-0.04000000000000009      -1.667355054051816E-5
-0.04499999999999993      -1.622906120095474E-5
-0.0500000000000001       -1.5736770518389743E-5
-0.05500000000000005      -1.5176351158117368E-5
-0.06000000000000005      -1.460802616033775E-5
-0.065                    -1.4014715550305865E-5
-0.07                     -1.3436300704091142E-5
-0.07500000000000001      -1.2861183369192844E-5
-0.08000000000000013      -1.2311462618108991E-5
-0.08499999999999996      -1.1780499704429466E-5
-0.09000000000000008      -1.1278278644427498E-5
-0.09499999999999992      -1.0801547898657756E-5
-0.10000000000000003      -1.0353042009909434E-5
-0.10500000000000004      -9.931530128909534E-6
-0.11000000000000004      -9.535889165076499E-6
-0.11499999999999999      -9.16596233693084E-6
-0.12                     -8.818879673912742E-6
-0.12499999999999994      -8.494975160994687E-6
-0.13000000000000012      -8.190824663761474E-6
-0.13499999999999995      -7.90692878565628E-6
-0.14000000000000007      -7.639922101888141E-6
-0.1449999999999999       -7.390309340098656E-6
-0.15000000000000002      -7.15505985702808E-6
-0.15500000000000003      -6.93461192782463E-6
-0.15999999999999998      -6.7263627207188624E-6
-0.16499999999999998      -6.530661965013675E-6
-0.16999999999999993      -6.345335387372634E-6
-0.17499999999999993      -6.170166391197687E-6
-0.18000000000000008      -6.001999606859414E-6
-0.18499999999999991      -5.84214050354137E-6
-0.19000000000000003      -5.690589081243585E-6
-0.19499999999999987      -5.546692457642598E-6
-0.2                      -5.4093547408659895E-6
-0.20500000000000013      -5.279479225805849E-6
-0.20999999999999996      -5.1570659124621015E-6
-0.2150000000000001       -5.040452694461007E-6
-0.21999999999999992      -4.927346976443561E-6
-0.22500000000000006      -4.819748942153508E-6
-0.23000000000000004      -4.717658591590869E-6
-0.23500000000000004      -4.619787653827063E-6
-0.24000000000000002      -4.524684502612596E-6
-0.245                    -4.433703321345392E-6
-0.24999999999999997      -4.346844110025431E-6
-0.2550000000000001       -4.263167818634012E-6
-0.25999999999999995      -4.181819171841348E-6
-0.26500000000000007      -4.103662806105728E-6
-0.2699999999999999       -4.0286987214271324E-6
-0.275                    -3.956208908623302E-6
-0.28                     -3.885673619176764E-6
-0.28500000000000003      -3.817672827021453E-6
-0.29                     -3.752206532157344E-6
-0.29499999999999993      -3.6884153508523215E-6
-0.29999999999999993      -3.6258175741591872E-6
-0.3050000000000001       -3.5650223732065984E-6
-0.30999999999999994      -3.5060297479945573E-6
-0.31500000000000006      -3.4488396985230544E-6
-0.3199999999999999       -3.3934522247921068E-6
-0.325                    -3.3398673268017025E-6
-0.33                     -3.288085004551837E-6
-0.33499999999999996      -3.2372725797571704E-6
-0.33999999999999997      -3.1874190999175676E-6
-0.345                    -3.1390366600047476E-6
-0.3499999999999999       -3.092125260018741E-6
-0.3550000000000001       -3.0466848999595163E-6
-0.3599999999999999       -3.0027155798271018E-6
-0.36500000000000005      -2.960217299621471E-6
-0.3699999999999999       -2.919190059342636E-6
-0.375                    -2.8785165323063205E-6
-0.3800000000000001       -2.838398892500366E-6
-0.38499999999999995      -2.7993555203410763E-6
-0.39000000000000007      -2.761386415828467E-6
-0.3949999999999999       -2.7244915789625078E-6
-0.4000000000000001       -2.6886710097432316E-6
-0.405                    -2.6539247081706233E-6
-0.41000000000000003      -2.620252674244676E-6
-0.415                    -2.586785675065813E-6
-0.42                     -2.553818822613862E-6
