% Model:              2022_CV_No_Electrochem.mph
% Version:            COMSOL 6.0.0.405
% Date:               Sep 14 2022, 13:55
% Dimension:          1
% Nodes:              121
% Expressions:        10
% Description:        Global
% -E_time (V)             Value                    Value                    Value                    Value                    Value                    Value                    Value                    Value                    Value                    Value
-0.3                      4.617098605137304E-9     4.473376276104402E-9     4.272596263861159E-9     2.925232820049272E-9     2.0400937454749627E-9    5.844080778130583E-10    3.083104751610767E-10    6.448085595830327E-11    3.242410165960547E-11    6.507426354083261E-12
-0.29                     1.1367383894914312E-9    1.146264604696715E-9     1.1502841473363098E-9    1.0498506215682214E-9    1.0763371615861244E-9    1.0836375793682158E-9    1.160781815167944E-9     9.815967891241015E-10    8.821410687727257E-10    3.99509448617984E-10
-0.27999999999999997      1.4002771522711559E-9    1.4005430292921589E-9    1.4002828372899655E-9    1.4125938137596676E-9    1.4103902122617753E-9    1.3789054612755113E-9    1.3574162562166007E-9    1.1719359609991961E-9    1.016116457898342E-9     4.726420983232496E-10
-0.27                     1.8938420984634314E-9    1.8923339072268928E-9    1.891405609252148E-9     1.8855627284255496E-9    1.8782335857985686E-9    1.845889829337758E-9     1.7899459705700524E-9    1.5278682995357613E-9    1.2826798464939874E-9    5.801407562573689E-10
-0.26                     2.7357942681903595E-9    2.735122667793256E-9     2.7342461786949146E-9    2.6934947759757657E-9    2.6847048675845954E-9    2.6231597073388384E-9    2.5465704681552868E-9    2.097123277529822E-9     1.724733254621428E-9     7.31920189530717E-10
-0.25                     3.962505380514555E-9     3.961342986238269E-9     3.9598209404348535E-9    3.971168546484574E-9     3.9561747581025305E-9    3.841959550172042E-9     3.7111443717622255E-9    2.915351778887387E-9     2.3356794923297926E-9    9.268343341227658E-10
-0.24                     6.046228757887779E-9     6.043767675576455E-9     5.99769403756926E-9      5.99466339191083E-9      5.965031238821202E-9     5.7435799615069386E-9    5.494979183763591E-9     4.149009308565583E-9     3.202845167574106E-9     1.1772052926667656E-9
-0.22999999999999998      9.024372076760736E-9     9.019871233734805E-9     9.03096629871065E-9      8.979636571265976E-9     8.924832484231117E-9     8.519435861422414E-9     8.072724770809055E-9     5.793689953825202E-9     4.327673503594341E-9     1.4859798985685086E-9
-0.21999999999999997      1.3362145677182368E-8    1.335402537518875E-8     1.3348649185510769E-8    1.3268518383451967E-8    1.3171170566227212E-8    1.2459547082116292E-8    1.1690058004735746E-8    7.976967496590058E-9     5.770876772221588E-9     1.8651912208919103E-9
-0.21                     1.9742063610963825E-8    1.972746748697717E-8     1.970896743709593E-8     1.9567697733190667E-8    1.9394446833011407E-8    1.81460032305985E-8      1.68280342124445E-8      1.086707625324113E-8     7.62978105494526E-9      2.332076822160044E-9
-0.2                      2.9144353799267147E-8    2.9118172458578812E-8    2.9086082109222016E-8    2.8831957960332818E-8    2.8524175534348135E-8    2.6342062392562533E-8    2.410204850424304E-8     1.4680468794813303E-8    1.0016659602654595E-8    2.9051121420435656E-9
-0.19                     4.300762745652906E-8     4.296071730908985E-8     4.290282722749197E-8     4.244894726178513E-8     4.190330534387272E-8     3.8106951320371186E-8    3.433443466323659E-8     1.966467159235986E-8     1.3025675364773553E-8    3.605975349392867E-9
-0.18                     6.344808537067446E-8     6.336410220469672E-8     6.326008471056772E-8     6.245138217208011E-8     6.148599046810624E-8     5.491500832581555E-8     4.86251901110115E-8      2.6117228288000134E-8    1.6811795306057144E-8    4.461733601349353E-9
-0.16999999999999998      9.357780481306165E-8     9.34275678273014E-8      9.324153408801196E-8     9.180332998321281E-8     9.0099222175409E-8       7.879319177548194E-8     6.842343921074776E-8     3.4396799859723015E-8    2.1548527350063032E-8    5.505492138620376E-9
-0.16                     1.3796787023063928E-7    1.376993627863912E-7     1.3736727147966257E-7    1.348146886552E-7        1.318149266684207E-7     1.1249582210909927E-7    9.561085895994208E-8     4.493321608267282E-8     2.7440862759554554E-8    6.781237833927584E-9
-0.15                     2.0529519417362135E-7    2.0283905050971772E-7    2.022472742804207E-7     1.9772724614016617E-7    1.9246466110676894E-7    1.5971626111583357E-7    1.3259436932392813E-7    5.8240507170034655E-8    3.4735901201812315E-8    8.330814717675153E-9
-0.13999999999999999      3.02798214011593E-7      3.0143062680790433E-7    3.0034270847727615E-7    2.895310003095216E-7     2.803377227682523E-7     2.2533340550486426E-7    1.824055604789674E-7     7.493316393306734E-8     4.373139481995404E-8     1.021562022051205E-8
-0.13                     4.4573193536747676E-7    4.43869033608572E-7      4.4193785129524624E-7    4.267336684084021E-7     4.102819996537879E-7     3.156861501079567E-7     2.488044488813549E-7     9.57462234607692E-8      5.4786600443577904E-8    1.2507944940942986E-8
-0.12                     6.549370406275868E-7     6.519516648129763E-7     6.485391826672461E-7     6.227120492214376E-7     5.94308887753767E-7      4.3886144016883795E-7    3.363848813786586E-7     1.2155996309691617E-7    6.833559657967236E-8     1.5294829611162178E-8
-0.11000000000000001      9.601139528269326E-7     9.550547629832682E-7     9.490595127621424E-7     9.045753051457699E-7     8.56006489532435E-7      6.067643224561168E-7     4.506789575538354E-7     1.53429998157361E-7      8.490333771124681E-8     1.8682083983894064E-8
-0.1                      1.4029777723192656E-6    1.394269605204992E-6     1.3838173864012234E-6    1.3074220677669878E-6    1.2253303394882768E-6    8.293929413776095E-7     5.982577515512244E-7     1.9262362218254325E-7    1.0512498409072393E-7    2.2798215604626073E-8
-0.09                     2.0407343955810724E-6    2.025761736038263E-6     2.0077322783350594E-6    1.8778177185309227E-6    1.741048058875467E-6     1.121913634928354E-6     7.868247506028333E-7     2.406632764460755E-7     1.29769107361458E-7      2.779925558556565E-8
-0.07999999999999999      2.9489572793175376E-6    2.923487879586754E-6     2.8928485899014197E-6    2.6752616446624427E-6    2.4514883767254396E-6    1.5016357289263834E-6    1.0252960676674975E-6    2.9937806684704E-7       1.597654625207882E-7     3.3874632070080256E-8
-0.06999999999999998      4.221716726442394E-6     4.179204694390877E-6     4.128210881635684E-6     3.771451307292779E-6     3.41359904203336E-6      1.986067696597117E-6     1.323856894731992E-6     3.7096423649850165E-7    1.9623811838186825E-7    4.125427280220937E-8
-0.06                     5.9648998632638434E-6    5.895910712500958E-6     5.813459821471067E-6     5.245073390390079E-6     4.688982569545665E-6     2.6003848537106955E-6    1.6939762346398891E-6    4.5805540826009643E-7    2.4054483215704135E-7    5.021719850635876E-8
-0.05000000000000002      8.276620612922816E-6     8.169000227065761E-6     8.040854790295106E-6     7.169133011682879E-6     6.335295946547219E-6     3.3621810347699057E-6    2.1483513387292305E-6    5.638031692630042E-7     2.94323627855503E-7      6.110191288792445E-8
-0.03999999999999998      1.120874238587585E-5     1.1049608587079513E-5    1.0860706499274754E-5    9.588300733970123E-6     8.391773905948838E-6     4.296355926816462E-6     2.7007395656994863E-6    6.919680883877192E-7     3.595475725904185E-7     7.431895123664025E-8
-0.02999999999999997      1.4692551203158792E-5    1.4473572817629225E-5    1.4214119864783577E-5    1.2473662728356123E-5    1.0849469081036369E-5    5.417393131883355E-6     3.365619339931931E-6     8.470204112329309E-7     4.3858870771577967E-7    9.036601674059436E-8
-0.020000000000000018     1.8567604689368883E-5    1.8289321351622765E-5    1.795970496277535E-5     1.5741978734193264E-5    1.3664793017840703E-5    6.739314879125382E-6     4.157605470928377E-6     1.0342482927330552E-6    5.342919351754237E-7     1.0984620947597433E-7
-0.009999999999999953     2.2454890741356768E-5    2.21362529896902E-5      2.1758023061486596E-5    1.917606611207193E-5     1.6705835236044973E-5    8.266495033600236E-6     5.090531166918411E-6     1.2598692757538695E-6    6.500593132198012E-7     1.3348993751988955E-7
0                         2.58696872847415E-5      2.554699193510274E-5     2.516217628836837E-5     2.2460538959499997E-5    1.9762892354073685E-5    9.98977276460243E-6      6.176106411865225E-6     1.5311375111127226E-6    7.899445785256297E-7     1.6218119117428036E-7
0.009999999999999953      2.8381877504172357E-5    2.8097111727525366E-5    2.7755371224541945E-5    2.525226028965816E-5     2.257950467525943E-5     1.188311794248126E-5     7.422080608309075E-6     1.856434586069328E-6     9.587566416110629E-7     1.9698895628258953E-7
0.020000000000000018      2.9767419777662922E-5    2.955205434806891E-5     2.9291909995646688E-5    2.727357746706005E-5     2.4903932532500945E-5    1.3900673704381855E-5    8.829891202488266E-6     2.2453253957606354E-6    1.1621691053190567E-6    2.392046344636508E-7
0.030000000000000027      3.0062758385298592E-5    2.9927958469715654E-5    2.9764454113698154E-5    2.8391654957335206E-5    2.6549367163850148E-5    1.597545861795012E-5     1.0391886230639578E-5    2.708551904072146E-6     1.4068302766290485E-6    2.9038641555561874E-7
0.03999999999999998       2.9497586060585413E-5    2.9436044134628756E-5    2.936174628159446E-5     2.864251344783923E-5     2.7438569676118924E-5    1.8021246097563466E-5    1.2088380319688476E-5    3.2579267332848763E-6    1.7004643597343819E-6    3.5241159251506175E-7
0.04999999999999993       2.8372183330732958E-5    2.8366890807723246E-5    2.8361797176646934E-5    2.819162800851513E-5     2.761292843011616E-5     1.993865362160904E-5     1.3885037610949303E-5    3.906075594307436E-6     2.051949159499247E-6     4.275377931555885E-7
0.06                      2.6958557566595082E-5    2.6991143852403364E-5    2.7032889278679386E-5    2.7260880016550706E-5    2.7204221861788204E-5    2.1625687465369198E-5    1.573133401815919E-5     4.665963838094939E-6     2.471348305271768E-6     5.184739835156057E-7
0.07                      2.5455981678814955E-5    2.5511210591470603E-5    2.558093545948588E-5     2.6062124997822144E-5    2.6385986763286193E-5    2.299160383902928E-5     1.7561044672037506E-5    5.550130686494281E-6     2.9698664325515933E-6    6.284618107583695E-7
0.07999999999999996       2.398873813026614E-5     2.4055669500840898E-5    2.413973282378639E-5     2.476011217721984E-5     2.5327473312293405E-5    2.3971309676335747E-5    1.92956827160525E-5      6.5695502760229785E-6    3.5596839297819296E-6    7.61367307345306E-7
0.09000000000000002       2.2622824203463415E-5    2.269429761650133E-5     2.2783763270713223E-5    2.3464284336827518E-5    2.4165164711390604E-5    2.453640805185604E-5     2.0851414043318037E-5    7.732050183369252E-6     4.2536143999072405E-6    9.217820427967869E-7
0.09999999999999998       2.1385616825586945E-5    2.1457261542084212E-5    2.1546697718503683E-5    2.2237342597526887E-5    2.299388121191473E-5     2.4699252579654056E-5    2.2149095887106924E-5    9.040258032545981E-6     5.064514714208989E-6     1.1151313058652061E-6
0.10999999999999999       2.028174925098432E-5     2.0351069205865033E-5    2.0437402567847568E-5    2.110896067721355E-5     2.1871038808175726E-5    2.450836331359156E-5     2.3125859013540695E-5    1.0489130182054272E-5    6.004368217897056E-6     1.3477845904951397E-6
0.12                      1.9303933871488293E-5    1.936962252852346E-5     1.9451271081108553E-5    2.0088211223774255E-5    2.0826209014782316E-5    2.4036605270471833E-5    2.3745512312664514E-5    1.2063256730702755E-5    7.082962929458666E-6     1.6271602406822669E-6
0.12999999999999995       1.843960451905183E-5     1.8501080400063012E-5    1.857736451437481E-5     1.9172638588813656E-5    1.9870733237742385E-5    2.3366113715971053E-5    2.4004658993441317E-5    1.3734336410257308E-5    8.306108749547016E-6     1.9618112208027844E-6
0.14                      1.7674668091218382E-5    1.7731776672125177E-5    1.7802542275381178E-5    1.8354118632039126E-5    1.900520482159403E-5     2.2574652322009676E-5    2.393230356487102E-5     1.545944919308849E-5     9.673394586505165E-6     2.3614722316093406E-6
0.14999999999999997       1.6995446193513956E-5    1.704827473893477E-5     1.7113660858902585E-5    1.7622329675591078E-5    1.8224536623268408E-5    2.172666647714472E-5     2.3582810046176375E-5    1.718095529205506E-5     1.1175592981717876E-5    2.8370394561323287E-6
0.16000000000000003       1.638955858569143E-5     1.6438323597795082E-5    1.6498622444643876E-5    1.6966654568638543E-5    1.7521092200360523E-5    2.0869825899542708E-5    2.3024450643423706E-5    1.8828895236157297E-5    1.2791986258056359E-5    3.4004429850840977E-6
0.16999999999999998       1.5846223888457087E-5    1.5891203859455962E-5    1.5946778261620696E-5    1.6377128705960734E-5    1.688648322992958E-5     2.0035825170837713E-5    2.232720424774028E-5     2.0326503104407972E-5    1.4488107296402632E-5    4.0643588517789505E-6
0.18                      1.535626065877923E-5     1.5397756607183916E-5    1.5448992292082678E-5    1.5844840921164983E-5    1.631252517010164E-5     1.9243434106802014E-5    2.1553180737031463E-5    2.1598759949161348E-5    1.6214618435906063E-5    4.841694026909087E-6
0.19                      1.4911949756301406E-5    1.495026262969394E-5     1.4997541411393486E-5    1.5362038036083787E-5    1.579169267997251E-5     1.8502091369052003E-5    2.0751391895316886E-5    2.2582854641827325E-5    1.7908202325811245E-5    5.744766832691952E-6
0.19999999999999996       1.4506845426970375E-5    1.4542263672688244E-5    1.4585949072149399E-5    1.4922080277066962E-5    1.5317292492005692E-5    1.7815066238566117E-5    1.9956667872925028E-5    2.3238304910123327E-5    1.949526852998251E-5     6.784102805283303E-6
0.21000000000000002       1.413557999243754E-5     1.4168373217097036E-5    1.4208803413374515E-5    1.4519330518673844E-5    1.4883485295139294E-5    1.718185159699298E-5     1.9191327153299263E-5    2.355389185947045E-5     2.089884118476179E-5     7.966781315009818E-6
0.22000000000000003       1.379368322029638E-5     1.3824099461874343E-5    1.3861584517771643E-5    1.414902211062644E-5     1.4485233063866737E-5    1.659981380593705E-5     1.8468019311542603E-5    2.3549033332955646E-5    2.204812660138209E-5     9.294314206399659E-6
0.23000000000000004       1.347776369716417E-5     1.3506030823601996E-5    1.3540854943503957E-5    1.3807128034690211E-5    1.4118214694871147E-5    1.6065259588090813E-5    1.779261009645772E-5     2.3268873492070973E-5    2.2889122775675633E-5    1.076012947729322E-5
0.24000000000000005       1.3184560055044026E-5    1.3210896392448508E-5    1.3243331318107942E-5    1.3490551472857361E-5    1.3778733034256815E-5    1.5574091918235915E-5    1.7166560687184745E-5    2.27745733829284E-5      2.3393668758939825E-5    1.2346882846085378E-5
0.24999999999999994       1.2911094279892555E-5    1.2935679895598452E-5    1.29659493343041E-5      1.3196090010104232E-5    1.3463625021696985E-5    1.5122193954724711E-5    1.6588671786071322E-5    2.213192775894679E-5     2.3564149562776335E-5    1.4024026983964018E-5
0.25999999999999995       1.2655050556581104E-5    1.2678038013299424E-5    1.2706331263238144E-5    1.2921082604127901E-5    1.3170426678503679E-5    1.4705640373849777E-5    1.6056268837028177E-5    2.140162425170807E-5     2.3432085138464067E-5    1.574630197386464E-5
0.26999999999999996       1.241468580408452E-5     1.2436219851425779E-5    1.2462716481250392E-5    1.2663698290409354E-5    1.2896831330188311E-5    1.4320802566170545E-5    1.5565965118859286E-5    2.0633221389922535E-5    2.305083895986733E-5     1.745399442475997E-5
0.2800000000000001        1.2188466912712059E-5    1.220868220034634E-5     1.2233549203863657E-5    1.2422148350652103E-5    1.2640444982838458E-5    1.3964390400597652E-5    1.5114131493313235E-5    1.9863128631537038E-5    2.2484777733054716E-5    1.907581774518924E-5
0.29                      1.1974990019473065E-5    1.1994005032181144E-5    1.2017389254623689E-5    1.219466707891733E-5     1.2399381688915828E-5    1.3633457290927692E-5    1.4697172426730185E-5    1.9115537977024764E-5    2.1798281138317704E-5    2.0534939373254964E-5
0.3                       1.177304901356765E-5     1.1790968424201944E-5    1.1812999521549388E-5    1.1979900070716852E-5    1.2172301734542037E-5    1.3325385006778862E-5    1.4311678419522278E-5    1.8404836000151204E-5    2.104750354417237E-5     2.1757926628356994E-5
0.29                      1.1580810328408919E-5    1.1597016321871132E-5    1.1616919433563522E-5    1.1766099546842805E-5    1.1937300436855347E-5    1.2934269994800866E-5    1.3743308972837851E-5    1.6665345520354133E-5    1.8266472882518402E-5    1.7807455485556608E-5
0.2800000000000001        1.1398239861144323E-5    1.141292531668538E-5     1.14309413267714E-5      1.1567748120158141E-5    1.1723434769531081E-5    1.2612003823569906E-5    1.330434247408309E-5     1.5481110204987415E-5    1.6462749352543564E-5    1.4910078408112854E-5
0.26999999999999996       1.1224744497663734E-5    1.1238346883632648E-5    1.125502316278779E-5     1.1380622738917122E-5    1.1523216893855733E-5    1.231989869205385E-5     1.2918415501077992E-5    1.4558248174128914E-5    1.5036451613712221E-5    1.267166433208413E-5
0.25999999999999995       1.1059088743535405E-5    1.1071636560566873E-5    1.1087008477644904E-5    1.1201477155009101E-5    1.1331112953269573E-5    1.2039504758370153E-5    1.254796164999432E-5     1.3699293977690534E-5    1.3778375789437356E-5    1.083917455653558E-5
0.25000000000000006       1.0900408428781578E-5    1.0911797018108066E-5    1.0925733482535811E-5    1.102942005954607E-5     1.1146106639082769E-5    1.1769453479674732E-5    1.2190873269335793E-5    1.2887543996798712E-5    1.2637259557001766E-5    9.302389265747569E-6
0.23999999999999994       1.0748126205887427E-5    1.0758361655163815E-5    1.0770870739456294E-5    1.0863907237197625E-5    1.0967839889021082E-5    1.1506581002403369E-5    1.1842100420252998E-5    1.2109008464352429E-5    1.1578973415243504E-5    7.991989030403633E-6
0.22999999999999993       1.0601525939505886E-5    1.0610622962626844E-5    1.0621724247210058E-5    1.070383476009796E-5     1.0794890783739992E-5    1.1247153375990639E-5    1.14955847230271E-5      1.1350907819533309E-5    1.0584122153063498E-5    6.863449143777013E-6
0.22000000000000003       1.0459736709608337E-5    1.046763615240253E-5     1.0477257656874121E-5    1.0547932384478236E-5    1.062557585836972E-5     1.0988123797721962E-5    1.1146825385133033E-5    1.0606582780423101E-5    9.64236741533542E-6      5.886755127824691E-6
0.21000000000000002       1.0321805551487723E-5    1.0328409797137954E-5    1.0336432624258445E-5    1.0394970289173397E-5    1.0458413109990303E-5    1.0726676033636117E-5    1.079220350713109E-5     9.873175033073725E-6     8.748872358446115E-6     5.039858391405096E-6
0.20000000000000012       1.0186597477440854E-5    1.0191795274642762E-5    1.0198085198157131E-5    1.0243536728000064E-5    1.02917769569293E-5      1.0459706291584233E-5    1.042768197500666E-5     9.14942885348549E-6      7.902115525410772E-6     4.3055202781504E-6
0.19                      1.0052626592072754E-5    1.0056277590078946E-5    1.0060666395808947E-5    1.0091817333561072E-5    1.0123586954785786E-5    1.0183820862732436E-5    1.0051016996919504E-5    8.436694417965837E-6     7.1024213684301195E-6    3.6695616223297646E-6
0.18                      9.917882944861503E-6     9.919806156794387E-6     9.922078109142917E-6     9.937455349240054E-6     9.951204112026958E-6     9.895013196782227E-6     9.656967237457644E-6     7.73806652618052E-6      6.35096798922092E-6      3.1198738084805127E-6
0.16999999999999993       9.779588659755917E-6     9.779564699803303E-6     9.77946052562848E-6      9.777335545194599E-6     9.771256921392019E-6     9.590506234650912E-6     9.244213107395859E-6     7.056115914812667E-6     5.649103141016833E-6     2.645864747518287E-6
0.15999999999999998       9.633820370250585E-6     9.63159434794769E-6      9.628816372663304E-6     9.606804588793246E-6     9.578862450338714E-6     9.264888492053129E-6     8.809524381342556E-6     6.396084835917706E-6     4.9978790843632975E-6    2.2381412924435103E-6
0.14999999999999997       9.474398703924222E-6     9.469680453965501E-6     9.463895484702843E-6     9.421270419214997E-6     9.369413551645258E-6     8.913362976622269E-6     8.35076468808207E-6      5.761025013441493E-6     4.397760194256181E-6     1.8883205427445269E-6
0.14                      9.294861637515558E-6     9.287354703430803E-6     9.27822974528697E-6      9.211604379019665E-6     9.133779442188918E-6     8.530651621237723E-6     7.86643198795422E-6      5.154986697981799E-6     3.848470240222549E-6     1.5889105062886656E-6
0.13000000000000006       9.08222367147881E-6      9.071634001879255E-6     9.058851559382578E-6     8.966606073889116E-6     8.861220547127072E-6     8.110789190684506E-6     7.35546670348259E-6      4.581139941765051E-6     3.3489494080310805E-6    1.3332263726093544E-6
0.12                      8.819833550289042E-6     8.805941216462199E-6     8.78928850488535E-6      8.670632353583216E-6     8.537213594611261E-6     7.647171847544512E-6     6.817308074788477E-6     4.04170884382406E-6      2.8973922025426206E-6    1.1153237666852932E-6
0.10999999999999999       8.48374150914415E-6      8.466516369825379E-6     8.446027598783551E-6     8.30191741416678E-6      8.142169874811123E-6     7.132519983387827E-6     6.25124293495814E-6      3.5379665807432745E-6    2.491339075576783E-6     9.304177608162057E-7
0.10000000000000003       8.039821640278993E-6     8.019621384050558E-6     7.995817167168644E-6     7.83077464283777E-6      7.650256083078668E-6     6.5588478556833475E-6    5.6578169668679455E-6    3.070183614748115E-6     2.127797771208612E-6     7.725292142263684E-7
0.09000000000000008       7.440582547573578E-6     7.418483621733895E-6     7.392765075495863E-6     7.217526335583608E-6     7.028143263426764E-6     5.91747158650397E-6      5.036511714138879E-6     2.6376481064958452E-6    1.8036832303731599E-6    6.390189865924627E-7
0.07999999999999996       6.621724684972152E-6     6.600038593442782E-6     6.575293958723982E-6     6.410747221897607E-6     6.234194643062424E-6     5.199078353838975E-6     4.38664286362342E-6      2.2388862800541106E-6    1.5148875061138373E-6    5.257780557778139E-7
0.07                      5.499907708222574E-6     5.48291148568113E-6      5.464362361172181E-6     5.346824780262242E-6     5.218809402937089E-6     4.3938984367520766E-6    3.7071725984515746E-6    1.871347201409276E-6     1.2575492958212967E-6    4.2943434059750246E-7
0.06000000000000005       3.974538151991471E-6     3.96934387560462E-6      3.965534430743828E-6     3.952588144552548E-6     3.927005964243777E-6     3.492037220168119E-6     2.9961142168937916E-6    1.5318259965502726E-6    1.027916130045372E-6     3.4750032620843927E-7
0.0500000000000001        1.938486655447797E-6     1.9557120349167404E-6    1.9792418382790452E-6    2.1536016088309426E-6    2.3046607653250345E-6    2.484038033881534E-6     2.2500955042524917E-6    1.21662996326853E-6      8.22106789355234E-7      2.777455942600059E-7
0.04000000000000015       -6.956493775641567E-7    -6.422120868651201E-7    -5.751325193590668E-7    -1.0898680434217889E-7   3.0976406686487566E-7    1.3617551580370577E-6    1.4656947924584707E-6    9.215874495172194E-7     6.36219403860777E-7      2.1809481521758332E-7
0.029999999999999916      -3.949064309403241E-6    -3.845050068438435E-6    -3.717646750246264E-6    -2.851663148444553E-6    -2.0708982348161015E-6   1.196119226125669E-7     6.377955659868944E-7     6.420982974768121E-7     4.664447224220965E-7     1.6675830714633298E-7
0.019999999999999907      -7.716306632877908E-6    -7.5526427974684774E-6   -7.354307988044601E-6    -6.015316606630329E-6    -4.8015912802752404E-6   -1.2437087240958443E-6   -2.390127478837878E-7    3.7321248754679276E-7    3.0905197807557467E-7    1.2221373149816296E-7
0.009999999999999953      -1.172032286820879E-5    -1.1501003969335584E-5   -1.1236250971166016E-5   -9.437781726460654E-6    -7.779840062656283E-6    -2.7231567721090876E-6   -1.170004814410859E-6    1.0967575914732553E-7    1.6034808315599352E-7    8.311937969044898E-8
0                         -1.5528271820433286E-5   -1.5275408438726622E-5   -1.4969831543566692E-5   -1.285148583860759E-5    -1.0830276369321103E-5   -4.3049132104148356E-6   -2.1595447969531976E-6   -1.540537728456846E-7    1.6654411098275757E-8    4.8273232914847596E-8
-0.009999999999999953     -1.866310548049891E-5    -1.8412676947846987E-5   -1.8108517389019374E-5   -1.5923993094512803E-5   -1.3719883778296997E-5   -5.96407294310053E-6     -3.20992738044581E-6     -4.2379368317548784E-7   -1.2572359014972175E-7   1.6595657628559614E-8
-0.020000000000000073     -2.0770018783944096E-5   -2.05582954553422E-5     -2.029912374793216E-5    -1.8340241157020044E-5   -1.6198813370039757E-5   -7.662706911264879E-6    -4.319949222421051E-6    -7.056199038741077E-7    -2.705425852269801E-7    -1.289830354279354E-8
-0.030000000000000027     -2.1737546567503478E-5   -2.158694207238694E-5    -2.1400848597735648E-5   -1.9894148898474537E-5   -1.8057416889194136E-5   -9.3492711913868E-6      -5.483391464271932E-6    -1.0064656839474016E-6   -4.2167106481040935E-7   -4.113115042319956E-8
-0.03999999999999998      -2.1697304220147503E-5   -2.1611349427446976E-5   -2.1504032967342567E-5   -2.0543653924611834E-5   -1.9178730487188406E-5   -1.0960136892821143E-5   -6.688217605803936E-6    -1.331628376404745E-6    -5.831340545280149E-7    -6.899009237414202E-8
-0.04999999999999993      -2.0922869260571056E-5   -2.08912190100981E-5     -2.0851059546637397E-5   -2.0401565665355563E-5   -1.9563207417860945E-5   -1.2423906422303795E-5   -7.909555465276606E-6    -1.6880336984685524E-6   -7.591489789534505E-7    -9.735143798877288E-8
-0.06000000000000005      -1.971043972502931E-5    -1.9717409318078656E-5   -1.9725526895502287E-5   -1.9674341988584568E-5   -1.9315180083775122E-5   -1.3668735262590394E-5   -9.119970902363462E-6    -2.08212729526204E-6     -9.545883120351124E-7    -1.2710556577858565E-7
-0.07                     -1.8302834360610657E-5   -1.8333671304780338E-5   -1.8371829448048454E-5   -1.8587758600768052E-5   -1.8600364235014804E-5   -1.463207274508908E-5    -1.0279401385099409E-5   -2.5197797629612406E-6   -1.172925870148646E-6    -1.5918223983635427E-7
-0.07999999999999999      -1.6865774743006177E-5   -1.690927025951724E-5    -1.6963417664124748E-5   -1.7333620724029432E-5   -1.7596318279102915E-5   -1.5270976877658177E-5   -1.134148362946164E-5    -3.0059218793669518E-6   -1.4202356809953823E-6   -1.945755788900495E-7
-0.08999999999999994      -1.5496190406728808E-5   -1.554486011675693E-5    -1.560555004293815E-5    -1.6048276379396304E-5   -1.6455567187342985E-5   -1.557026146867195E-5    -1.2257428044534259E-5   -3.5439315009528845E-6   -1.700500741720772E-6    -2.3436882464168815E-7
-0.0999999999999999       -1.4241428704723246E-5   -1.429072405467487E-5    -1.4352203746788566E-5   -1.4814840256943775E-5   -1.5289070796120216E-5   -1.5545752044712028E-5   -1.2981680503862243E-5   -4.134809277593222E-6    -2.0185685886063193E-6   -2.7975888486590954E-7
-0.11000000000000013      -1.3117649491502565E-5   -1.3165037465621356E-5   -1.3224108513912515E-5   -1.3675963507240185E-5   -1.4166403952932856E-5   -1.5241143908895577E-5   -1.3478922622915525E-5   -4.776181307160233E-6    -2.3786836834904524E-6   -3.3207985336838923E-7
-0.1200000000000001       -1.2123484637603524E-5   -1.21677060209003E-5     -1.2222786871684436E-5   -1.264778584563766E-5    -1.3124514397737549E-5   -1.4719108225156427E-5   -1.3730547458991549E-5   -5.461259641269777E-6    -2.7841135906895447E-6   -3.928240811050656E-7
-0.13000000000000006      -1.1248905107657803E-5   -1.1289459487424199E-5   -1.133992972234713E-5    -1.1731002191607954E-5   -1.2178263686625663E-5   -1.4049404820445089E-5   -1.3738706154645403E-5   -6.178920844576163E-6    -3.2366476483792875E-6   -4.636586185618082E-7
-0.14000000000000004      -1.0480471268611891E-5   -1.0517286739032604E-5   -1.0563066028734682E-5   -1.0918348848807452E-5   -1.1329254227098958E-5   -1.3297671456837437E-5   -1.3526406046100879E-5   -6.907612768501298E-6    -3.7358005041049296E-6   -5.464334635992221E-7
-0.15                     -9.804199004844597E-6    -9.837430602015224E-6    -9.87872240506046E-6     -1.0199173478670184E-5   -1.0572024381454097E-5   -1.2517776608075542E-5   -1.3133286286483777E-5   -7.62554645094875E-6     -4.2779605297808354E-6   -6.431773230198727E-7
-0.1600000000000001       -9.20697783649485E-6     -9.236889045298823E-6    -9.274030683164806E-6    -9.56200111954412E-6     -9.897937475252108E-6    -1.1748739298666206E-5   -1.260822925508399E-5    -8.302109329306079E-6    -4.8561732083137634E-6   -7.562907713972717E-7
-0.17000000000000007      -8.677163193240778E-6    -8.70405862162308E-6     -8.737436666195127E-6    -8.995849673576695E-6    -9.297421884155692E-6    -1.1015417753294257E-5   -1.2001087826951113E-5   -8.904005771654691E-6    -5.457352769555055E-6    -8.87656096687216E-7