% Model:              2022_CV_No_Electrochem.mph
% Version:            COMSOL 6.0.0.405
% Date:               Sep 14 2022, 14:09
% Dimension:          1
% Nodes:              241
% Expressions:        10
% Description:        Global
% -E_time (V)             Value                    Value                    Value                    Value                    Value                    Value                    Value                    Value                    Value                    Value
-0.3                      3.4238818731948232E-9    3.375591905553552E-9     3.3081253585957028E-9    2.7276402715729407E-9    2.169150161388881E-9     7.851187152471639E-10    4.342570281310672E-10    9.477861043236672E-11    4.7930902859084936E-11   9.67077081102013E-12
-0.295                    5.120374755886152E-10    3.0242772012651447E-10   2.857732388161289E-10    2.3232256344619287E-10   2.8330136072511925E-10   2.0955497108122122E-10   3.2083747552970095E-10   4.2585370983912704E-10   2.385705417513815E-10    2.3550299859090257E-10
-0.29                     5.118683217691688E-10    5.229242718143351E-10    5.251494151032038E-10    5.310942508652919E-10    5.304160968252389E-10    5.609423124628633E-10    5.361408043194767E-10    4.855805426710627E-10    4.810190915819285E-10    2.9225862138482715E-10
-0.285                    5.504032059505875E-10    5.610775567946717E-10    5.612351117897912E-10    5.619881204179101E-10    5.570700412263213E-10    5.397600181473112E-10    5.38920452322257E-10     5.110644540235949E-10    4.753759095039572E-10    3.055786597927123E-10
-0.27999999999999997      6.324331587736321E-10    6.335001925797824E-10    6.332301612897901E-10    6.323159848278294E-10    6.308012083018909E-10    6.200294875933349E-10    6.171420513530817E-10    5.792567670480083E-10    5.330695860589083E-10    3.36500252102684E-10
-0.27499999999999997      7.448963828458861E-10    7.440375889744021E-10    7.438834856489358E-10    7.430251445962706E-10    7.424607963554016E-10    7.363609264387627E-10    7.289835271190153E-10    6.752946317595913E-10    6.191112906752723E-10    3.782947858774217E-10
-0.27                     9.047294489783141E-10    9.051213972969935E-10    9.050673879066892E-10    9.043180431754251E-10    9.030687501962702E-10    8.945955992278307E-10    8.833396927329671E-10    8.074874393235271E-10    7.329295943198854E-10    4.2852331209529465E-10
-0.265                    1.093417529664131E-9     1.0937627452694926E-9    1.0936285765143525E-9    1.0924572328751332E-9    1.0907224057578283E-9    1.0781219234237145E-9    1.0636817392673364E-9    9.634759894612812E-10    8.652910694929825E-10    4.874497090269335E-10
-0.26                     1.3180389593677857E-9    1.3177765255419771E-9    1.317551503793446E-9     1.3158457269336888E-9    1.3137921778472183E-9    1.2974770645498845E-9    1.2784752828069935E-9    1.1475083975284716E-9    1.020941941651558E-9     5.558269302593077E-10
-0.255                    1.5942353770617215E-9    1.5938819368576675E-9    1.5935998570289415E-9    1.5913608519058097E-9    1.588655995254931E-9     1.5673428644491435E-9    1.5417816962018047E-9    1.3693613464413167E-9    1.2067709102659074E-9    6.34462541413733E-10
-0.25                     1.931897390839776E-9     1.9316235557150304E-9    1.931259018373043E-9     1.9283011124966323E-9    1.924609734782459E-9     1.896034234585023E-9     1.8619626892541838E-9    1.6354003760821242E-9    1.4266472711101186E-9    7.264754069246116E-10
-0.245                    2.3418129521132024E-9    2.3414373932173875E-9    2.3409424696987636E-9    2.3369701123372943E-9    2.332026196064758E-9     2.2937987376428043E-9    2.2486303467512163E-9    1.952065536252814E-9     1.6848982358874744E-9    8.304169506015247E-10
-0.24                     2.840023361242618E-9     2.839462947176032E-9     2.8387952461161255E-9    2.83346760656458E-9      2.826878831869597E-9     2.7759652834345883E-9    2.7160240312571307E-9    2.328437256827498E-9     1.9877019889691266E-9    9.471784427186088E-10
-0.235                    3.448076159746016E-9     3.445376837813573E-9     3.4444837954259216E-9    3.4373586088684504E-9    3.42854868554202E-9      3.360722494209151E-9     3.281154805383231E-9     2.7752786779036305E-9    2.3420649185672467E-9    1.0788194687182565E-9
-0.22999999999999998      4.180962757469989E-9     4.184215738041272E-9     4.183018061951369E-9     4.171213963005915E-9     4.159428179653354E-9     4.069039068561474E-9     3.9635258961373215E-9    3.3045316258793063E-9    2.7555158476538696E-9    1.226972330918022E-9
-0.22499999999999998      5.073998854534183E-9     5.074503474373546E-9     5.072906344399343E-9     5.065250108171748E-9     5.049472772566563E-9     4.926348092341644E-9     4.786556462987878E-9     3.929904186305371E-9     3.236533700051379E-9     1.3931625618279017E-9
-0.21999999999999997      6.160144078486277E-9     6.15917913473366E-9      6.157040756237703E-9     6.142206458862901E-9     6.121213232969058E-9     5.96670993114176E-9      5.781373250537668E-9     4.667307013652089E-9     3.794749543150943E-9     1.5792615786723666E-9
-0.215                    7.479878903147503E-9     7.478219573107905E-9     7.475356494690424E-9     7.453530103100826E-9     7.425485486012495E-9     7.215332709771369E-9     6.971081229151647E-9     5.5367928725200695E-9    4.4409282710579944E-9    1.7873990962641467E-9
-0.21                     9.083318122622954E-9     9.080743213625294E-9     9.07691079614875E-9      9.047266142865226E-9     9.009801602021885E-9     8.727940818913061E-9     8.405306804709146E-9     6.553372535654415E-9     5.187025399989418E-9     2.0198468554142078E-9
-0.20500000000000002      1.1031268726126458E-8    1.1027546481705416E-8    1.1022416803148355E-8    1.0982343996196482E-8    1.0932312245071242E-8    1.0556984125327018E-8    1.0131072867119819E-8    7.744782868243983E-9     6.047646342114216E-9     2.2790702650169186E-9
-0.2                      1.339755785557951E-8     1.3392377150189681E-8    1.338551162155724E-8     1.333159316250603E-8     1.326479015677625E-8     1.2765541699448718E-8    1.2203972591855185E-8    9.137982557723025E-9     7.033955357568336E-9     2.5677929882061283E-9
-0.195                    1.6271844040815194E-8    1.626475134877138E-8     1.625556337655441E-8     1.6183233952664605E-8    1.6094057809037888E-8    1.543060665655264E-8     1.4691059236921592E-8    1.0762658485264835E-8    8.164392377711566E-9     2.8890136183407685E-9
-0.19                     1.9762974192469865E-8    1.9753350345281054E-8    1.974105543750576E-8     1.9644174517325074E-8    1.9525163197799432E-8    1.8644283611117108E-8    1.7671639048135716E-8    1.265254795558427E-8     9.45720519893619E-9      3.246020924771769E-9
-0.185                    2.4003062658681877E-8    2.3990072882292608E-8    2.3973622091692652E-8    2.3843977463163566E-8    2.3685194761086402E-8    2.2516584615168847E-8    2.1239229632841525E-8    1.4845521360862455E-8    1.0931958468023679E-8    3.642426933609183E-9
-0.18                     2.9152431614970914E-8    2.9134954401808165E-8    2.9112945486387246E-8    2.893957041991052E-8     2.8727792558838087E-8    2.7178750891020157E-8    2.550387015313017E-8     1.738387895996992E-8     1.2610266699295764E-8    4.082601894734182E-9
-0.175                    3.540558568451969E-8     3.5382117999184145E-8    3.5352676914752704E-8    3.512093645361554E-8     3.483857444468298E-8     3.278704621271671E-8     3.059467414733597E-8     2.031472278901044E-8     1.4515871401972026E-8    4.570167208215993E-9
-0.16999999999999998      4.299843093905045E-8     4.2966961156476977E-8    4.2927584082445315E-8    4.2617960806308105E-8    4.224163446152403E-8     3.952716098403912E-8     3.66626966182976E-8      2.3690339079057815E-8    1.6674792009769534E-8    5.110228002360422E-9
-0.16499999999999998      5.2216986922856226E-8    5.2174825042549326E-8    5.2122167960943995E-8    5.170864908338416E-8     5.120730264507609E-8     4.761928942962202E-8     4.388412678649051E-8     2.7568603571073672E-8    1.9115520713997906E-8    5.708151467220593E-9
-0.16                     6.34078850445802E-8      6.33514363429691E-8      6.328103502227254E-8     6.272897287517445E-8     6.206138870073788E-8     5.732394327682858E-8     5.246381092316657E-8     3.201341332728745E-8     2.1869234966748905E-8    6.369756178147166E-9
-0.15499999999999997      7.699099708150299E-8     7.691546079918641E-8     7.682135858518621E-8     7.60846368053199E-8      7.519616063181898E-8     6.894856693496184E-8     6.26391067168877E-8      3.709514776393357E-8     2.4970034885609106E-8    7.101457282190999E-9
-0.15                     9.347459280713101E-8     9.337356163090022E-8     9.324781536094976E-8     9.226510163712868E-8     9.108333830743785E-8     8.285501070464093E-8     7.468406155597953E-8     4.289116371414225E-8     2.8455208925690153E-8    7.910321314385831E-9
-0.14500000000000002      1.1347348434248996E-7    1.1333841289119963E-7    1.1317043809373813E-7    1.1186023853379737E-7    1.102894081312837E-7     9.946790462317216E-8     8.891389615032593E-8     4.948633031466063E-8     3.236553027686992E-8     8.804131367494859E-9
-0.13999999999999999      1.377306736291468E-7     1.3755017444834495E-7    1.3732587925777704E-7    1.35580025903942E-7      1.3349358427049734E-7    1.1928395447054426E-7    1.0568976218662493E-7    5.6973610251524884E-8    3.674558706591599E-8     9.791461786059242E-9
-0.13499999999999998      1.6714307298081717E-7    1.669019862050323E-7     1.6660262854167082E-7    1.6427772672839438E-7    1.6150874866338808E-7    1.428821511286845E-7     1.2542372802436699E-7    6.545469454190402E-8     4.1644149638650676E-8    1.0881759419212286E-8
-0.13                     2.0279190806672933E-7    2.0247007539973882E-7    2.0207075934163624E-7    1.9897699198271483E-7    1.9530568794634996E-7    1.7093484297792047E-7    1.4858392992716376E-7    7.504069850542196E-8     4.7114578308436843E-8    1.2085432904906254E-8
-0.12500000000000003      2.459784238938479E-7     2.455490784025894E-7     2.450167827779773E-7     2.409033115974568E-7     2.3604089880613226E-7    2.042195662420463E-7     1.756998081494973E-7     8.585292686602719E-8     5.321527508039997E-8     1.3413950956592013E-8
-0.12                     2.9826547605075404E-7    2.9769313615120317E-7    2.9698414089623676E-7    2.9152015939858803E-7    2.850881379487912E-7     2.436314580333724E-7     2.073673275344114E-7     9.80237160138165E-8      6.001018298384537E-8     1.4879950493035851E-8
-0.11499999999999999      3.615254700690109E-7     3.607631990790217E-7     3.5981974302554124E-7    3.5257002602211177E-7    3.4407372722670795E-7    2.901959893044705E-7     2.442540613072104E-7     1.1169736133581738E-7    6.756933677338051E-8     1.6497355583154026E-8
-0.11000000000000001      4.3799486567548473E-7    4.3698072827129913E-7    4.3572669690817324E-7    4.2612026742506503E-7    4.1491536019122173E-7    3.450816483057476E-7     2.871039946146267E-7     1.2703113718664682E-7    7.596946889508806E-8     1.82815082765446E-8
-0.10499999999999998      5.303350259284378E-7     5.289875420061327E-7     5.273229482503174E-7     5.146132677759049E-7     4.998637576799753E-7     4.096120783812577E-7     3.3674188114071386E-7    1.4419641650684377E-7    8.529467475559911E-8     2.024931249043083E-8
-0.1                      6.416984764813207E-7     6.39910845850736E-7      6.377048366385299E-7     6.209197618206401E-7     6.015459436552203E-7     4.852770268150757E-7     3.9407696180447577E-7    1.633798962996194E-7     9.563714147482672E-8     2.2419392234956623E-8
-0.095                    7.757985328738956E-7     7.734313891443862E-7     7.705134957982324E-7     7.483932067251685E-7     7.230081088139701E-7     5.737412950926595E-7     4.601058289438563E-7     1.8478493412964014E-7    1.0709794443780599E-7    2.4812265579756508E-8
-0.09                     9.369786105336304E-7     9.338510732851516E-7     9.300004408098872E-7     9.009217489014629E-7     8.67754946692741E-7      6.7685069832616E-7       5.359141922876579E-7     2.0863299948770813E-7    1.1978791607579272E-7    2.7450535894420423E-8
-0.08500000000000002      1.1302751866299911E-6    1.1261540391926567E-6    1.121086444873906E-6     1.0829725065562688E-6    1.039780939356874E-6     7.966338480288215E-7     6.226772740746415E-7     2.35165242234002E-7      1.3382859138533665E-7    3.0359102035998245E-8
-0.07999999999999999      1.361465164374332E-6     1.3560521223917254E-6    1.349404765385474E-6     1.2996205082063443E-6    1.2435873123585566E-6    9.352983763319632E-7     7.216585295438002E-7     2.6464417834279024E-7    1.4935323471611E-7       3.3565389307161104E-8
-0.07500000000000001      1.6370841666643029E-6    1.6300014645573033E-6    1.6213158277396679E-6    1.5565516645295244E-6    1.4841762910217033E-6    1.0952200333086379E-6    8.342063555039341E-7     2.9735549074631857E-7    1.6650795229876978E-7    3.709960317032677E-8
-0.06999999999999998      1.9643970445823293E-6    1.9551720094061937E-6    1.94387562790264E-6      1.8600256823822846E-6    1.7670119709958621E-6    1.278922929078424E-6     9.617484138844074E-7     3.336099401290612E-7     1.8545289481437406E-7    4.0995007875721056E-8
-0.065                    2.351295870395691E-6     2.339345837585385E-6     2.3247346259531214E-6    2.216781116533255E-6     2.0979347898843115E-6    1.4890490808776487E-6    1.1057831596585368E-6    3.7374537694255834E-7    2.0636355398628072E-7    4.528823234525719E-8
-0.06                     2.8060945979714755E-6    2.7907145025127346E-6    2.7719384508891292E-6    2.6338613489316463E-6    2.483014659065091E-6     1.7283153900409021E-6    1.2678681247127255E-6    4.181288415586567E-7     2.294321566641496E-7     5.001960584902917E-8
-0.05499999999999999      3.3371848484988826E-6    3.317541105056121E-6     3.2935976559958073E-6    3.1183381521652377E-6    2.92832692573691E-6      1.999456248825259E-6     1.4496044735467124E-6    4.6715873419322804E-7    2.5486915911499984E-7    5.523352621630587E-8
-0.05000000000000002      3.952516361499925E-6     3.9276521336910955E-6    3.897393278570847E-6     3.6769101113346312E-6    3.439636390857165E-6     2.3051502017356897E-6    1.6526173169695234E-6    5.212670298280167E-7     2.829048431747288E-7     6.097886353839328E-8
-0.044999999999999984     4.658872164930042E-6     4.627730542679935E-6     4.589891302622796E-6     4.315358547961179E-6     4.0219787541487004E-6    2.6479295041066452E-6    1.8785312518225144E-6    5.809215056258074E-7     3.137910144732515E-7     6.730940254336905E-8
-0.03999999999999998      5.460927059931591E-6     5.422399476071326E-6     5.375656327964835E-6     5.037856041580169E-6     4.679137342778351E-6     3.0300720774154195E-6    2.128940595633955E-6     6.466279390393731E-7     3.478028010412313E-7     7.428432705294272E-8
-0.034999999999999976     6.360113188314478E-6     6.313119769570397E-6     6.25618677119379E-6      5.8461443036004635E-6    5.413026864554009E-6     3.4534762981396696E-6    2.4053738147885267E-6    7.189322237129085E-7     3.8524054813582306E-7    8.196875016430244E-8
-0.02999999999999997      7.353370738955557E-6     7.296976152399513E-6     7.228742811960097E-6     6.738629946966474E-6     6.223015585098324E-6     3.919520306634087E-6     2.7092517152612134E-6    7.984223370934821E-7     4.2643180196936214E-7    9.043429403309521E-8
-0.025000000000000022     8.43193223638502E-6      8.365494043898682E-6     8.285201331441437E-6     7.709486903464757E-6     7.105241791231296E-6     4.428909096369312E-6     3.041839090275755E-6     8.857300781477832E-7     4.717333710521245E-7     9.975972336134083E-8
-0.020000000000000018     9.580362925787259E-6     9.503699362143421E-6     9.411138532469225E-6     8.747896972733565E-6     8.05200666082417E-6      4.98151452165437E-6      3.404189715146721E-6     9.81532475467233E-7      5.215334489157509E-7     1.1003163691056044E-7
-0.015000000000000013     1.0776133447338122E-5    1.0689685369250572E-5    1.0585390143449253E-5    9.837594245924143E-6     9.051348236269473E-6     5.576215476728812E-6     3.797084862432614E-6     1.0865527451141429E-6    5.762537758856976E-7     1.2134522155679649E-7
-0.009999999999999953     1.199000135623134E-5     1.189495251478422E-5     1.1780342789157139E-5    1.095688968210588E-5     1.0086912410334828E-5    6.2107477235260135E-6    4.220965895885234E-6     1.2015606536532625E-6    6.363518101265E-7        1.3380507357056475E-7
-0.0050000000000000044    1.3187394285083687E-5    1.3085710419690873E-5    1.2963141151797283E-5    1.2079323106978883E-5    1.1138228163818724E-5    6.881574978246639E-6     4.6758620019802264E-6    1.3273721148673963E-6    7.02322869170903E-7      1.4752609192787087E-7
0                         1.433080936130664E-5     1.4225164977041482E-5    1.4097843112222218E-5    1.3175011612061312E-5    1.2181459045401482E-5    7.583794629000549E-6     5.1613147391708764E-6    1.4648478187649954E-6    7.747021923319955E-7     1.6263444852142264E-7
0.0050000000000000044     1.5382999102574205E-5    1.527658273928172E-5     1.5148340015645952E-5    1.4212639914060682E-5    1.3190639657683125E-5    8.311092496629243E-6     5.676301823137449E-6     1.6148906589694567E-6    8.540668615281976E-7     1.792686401243368E-7
0.009999999999999953      1.6310474058406315E-5    1.6206693767490112E-5    1.608163905471166E-5     1.5161892789866515E-5    1.4139321716182396E-5    9.055760969170324E-6     6.21916340176881E-6      1.7784416900396534E-6    9.410375028794078E-7     1.975806268366434E-7
0.015000000000000013      1.7086708695590462E-5    1.6988848799562938E-5    1.6870958512873896E-5    1.59960019197216E-5      1.5002465430338758E-5    9.808793237165894E-6     6.7875349665132205E-6    1.956474310753539E-6     1.0362796737123723E-6    2.1773706148691424E-7
0.020000000000000018      1.7694459671427533E-5    1.7605355654361157E-5    1.7498080754059124E-5    1.6694013676855916E-5    1.57583414594145E-5      1.0560062902953253E-5    7.378291931374525E-6     2.1499863344518755E-6    1.1405048191259033E-6    2.3992061403077514E-7
0.024999999999999967      1.8126802328812125E-5    1.804859575749011E-5     1.7954559963819912E-5    1.7242411233467216E-5    1.6390179393000706E-5    1.1298592767602057E-5    7.987511692597495E-6     2.3599895754410495E-6    1.254470658853264E-6     2.643313943389043E-7
0.030000000000000027      1.8386796167515667E-5    1.8320807890407138E-5    1.8241645369468875E-5    1.7635844752025316E-5    1.6887324751402747E-5    1.2012909214175326E-5    8.610459535733107E-6     2.5874965542944496E-6    1.378980838750914E-6     2.9118847584612416E-7
0.03500000000000003       1.848599433972985E-5     1.84327219231515E-5      1.8369064848022615E-5    1.7876904601732337E-5    1.7245746428368393E-5    1.2691469762569145E-5    9.241604931613721E-6     2.8335039087909986E-6    1.5148836519157982E-6    3.2073152127474895E-7
0.03999999999999998       1.8442217443823012E-5    1.8401434296176443E-5    1.8353025901571573E-5    1.7975059877714637E-5    1.7467851763554427E-5    1.33231419275436E-5      9.874674392598092E-6     3.0989720964987003E-6    1.6630696024689901E-6    3.5322250997257136E-7
0.044999999999999984      1.827707252862372E-5     1.8247989972208505E-5    1.821387774307435E-5     1.794502405819749E-5     1.7561687004176045E-5    1.3897702700565697E-5    1.0502745983871603E-5    3.3848009962295565E-6    1.8244675510143898E-6    3.8894756422790777E-7
0.04999999999999993       1.801363027147201E-5     1.7995081715894315E-5    1.797384119269272E-5     1.7804869223458603E-5    1.7539695855172064E-5    1.4406321273611261E-5    1.1118388674155771E-5    3.6918010667526347E-6    2.0000391456518837E-6    4.282188691332894E-7
0.05499999999999999       1.767453170565433E-5     1.7665146301308915E-5    1.7655094827913977E-5    1.757418857666732E-5     1.741725711262753E-5     1.4841984511600701E-5    1.171384690942157E-5     4.020659811506688E-6     2.190771207673898E-6     4.713766770421766E-7
0.06                      1.7280641446365205E-5    1.7278987267994234E-5    1.727836198926073E-5     1.7272528063493587E-5    1.7211219101794974E-5    1.5199826328584701E-5    1.228126715760238E-5     4.371903437878377E-6     2.397665708840124E-6     5.187913832545077E-7
0.06500000000000006       1.6850239858543427E-5    1.685492879984199E-5     1.6862018139824023E-5    1.6918206373377625E-5    1.6938604218772203E-5    1.5477329047570374E-5    1.2812958907138787E-5    4.745853799678682E-6     2.621726950361992E-6     5.708656541137397E-7
0.07                      1.6398669516445408E-5    1.6408424942497934E-5    1.6421654037030417E-5    1.65275491502766E-5      1.661559070924155E-5     1.567437662955455E-5     1.3301678084148093E-5    5.1425809820741395E-6    2.8639455363760507E-6    6.280365820140041E-7
0.07500000000000001       1.593831916621824E-5     1.5952012365829212E-5    1.596998947882312E-5     1.6114495968711377E-5    1.6256811123372554E-5    1.5793154948494956E-5    1.3740916623101037E-5    5.5618522378735065E-6    3.1252787318304095E-6    6.907778336943624E-7
0.07999999999999996       1.5478828647342963E-5    1.5495491933989786E-5    1.551702543398873E-5     1.5690502261442446E-5    1.587495239966312E-5     1.5837910830979244E-5    1.4125178644983195E-5    6.003078417366279E-6     3.406626812715243E-6     7.59601748412106E-7
0.08499999999999996       1.5027416512250004E-5    1.5046240563229779E-5    1.5070335907499468E-5    1.5264648242385296E-5    1.548060799387504E-5     1.5814596709931817E-5    1.445022205378557E-5     6.465259549065446E-6     3.7088050631452172E-6    8.350613308958176E-7
0.09000000000000002       1.4589256924707557E-5    1.4609578654463679E-5    1.4635423309643807E-5    1.4843874189668569E-5    1.508231757297699E-5     1.573043894597632E-5     1.4713244941664317E-5    6.946931814314841E-6     4.03251115794244E-6      9.177520701305137E-7
0.09499999999999997       1.4167856570430893E-5    1.4189142233212473E-5    1.4216084490602771E-5    1.4433277519652587E-5    1.468672995011802E-5     1.5593473370595863E-5    1.4912999327841094E-5    7.446298454091703E-6     4.378287801134606E-6     1.00831349877105E-6
0.09999999999999998       1.3765402246858417E-5    1.3787228969900825E-5    1.3814754737893133E-5    1.4036425346352589E-5    1.4298834192306558E-5    1.5412090785684943E-5    1.504982039276307E-5     7.960606287849598E-6     4.746480680781827E-6     1.1074303890824203E-6
0.10499999999999998       1.3383064513546774E-5    1.3405102253911079E-5    1.3432812377230176E-5    1.3655652774578366E-5    1.3922216905399307E-5    1.5193870766228027E-5    1.512556699270685E-5     8.486713583161073E-6     5.137192059083129E-6     1.2158334595731264E-6
0.10999999999999999       1.3021252676472833E-5    1.3043247707701485E-5    1.3070837229887639E-5    1.3292330294510673E-5    1.3559316895073198E-5    1.494902883312129E-5     1.5143477899158944E-5    9.020978513297768E-6     5.5502306524659855E-6    1.3342994417969765E-6
0.11499999999999999       1.2679822419637868E-5    1.2701582851914892E-5    1.2728822864993577E-5    1.2947093038397824E-5    1.321165967570505E-5     1.468254517273835E-5     1.5107956649343648E-5    9.559110782727397E-6     5.985058874477529E-6     1.4636503291404544E-6
0.12                      1.2358240652361976E-5    1.237962411026256E-5     1.2406346347986384E-5    1.2620030786060297E-5    1.2880062892209683E-5    1.440170059936203E-5     1.5024304804804605E-5    1.0096234594796667E-5    6.440739013929888E-6     1.6047515989481897E-6
0.12499999999999994       1.205571353850767E-5     1.2076616901104804E-5    1.2102700950550743E-5    1.2310841202722163E-5    1.2564809672714114E-5    1.4112253680924393E-5    1.4897890899515777E-5    1.0626465911588291E-5    6.915880491985694E-6     1.758509166469826E-6
0.12999999999999995       1.1771283928146535E-5    1.1791634924685359E-5    1.1816997788293637E-5    1.2018950601809695E-5    1.2265790675344856E-5    1.3818847303126369E-5    1.4735571053752605E-5    1.1145156753030568E-5    7.408762982893456E-6     1.925864794575239E-6
0.13500000000000006       1.150390402744226E-5     1.1523654438293806E-5    1.1548242123532776E-5    1.174360716819762E-5     1.1982617679694732E-5    1.3525321959062814E-5    1.4543767395984026E-5    1.1645897831955463E-5    7.916739301294368E-6     2.1077896481598784E-6
0.14                      1.1252488451334911E-5    1.1271608660553244E-5    1.1295389471063322E-5    1.1483951521448549E-5    1.1714712517440873E-5    1.3234740104397817E-5    1.4328379903098415E-5    1.2122489970334876E-5    8.436771405099417E-6     2.3052756484052836E-6
0.14500000000000002       1.1016050646062443E-5    1.1034524012383559E-5    1.1057481694424312E-5    1.1239069068674822E-5    1.146137535354525E-5     1.2949461071028488E-5    1.4094988610008872E-5    1.2568940665461776E-5    8.965323182065814E-6     2.519324252054203E-6
0.14999999999999997       1.0793798008121853E-5    1.0811627179820047E-5    1.0833768538230104E-5    1.1008112695718445E-5    1.1221906112884918E-5    1.2671241106141154E-5    1.3849220814744305E-5    1.2979542981918068E-5    9.498217500575469E-6     2.750932257977561E-6
0.15499999999999997       1.0583840927482617E-5    1.0601022476877178E-5    1.0622346507579067E-5    1.0790500158037028E-5    1.0995876194939214E-5    1.2401331050209285E-5    1.3593826151910849E-5    1.3349102695793511E-5    1.0030693530500592E-5    3.0010742319826177E-6
0.16000000000000003       1.0385856647697056E-5    1.0402401545277522E-5    1.0422924451842101E-5    1.0584838543821007E-5    1.0781467061708171E-5    1.2140567731866258E-5    1.3334840256662519E-5    1.3673154692962237E-5    1.0556987823166571E-5    3.270681146676181E-6
0.16499999999999998       1.0199030429475834E-5    1.0214955979032237E-5    1.0234701346173209E-5    1.0389999621983477E-5    1.0578590019634635E-5    1.1889456208663907E-5    1.3073840371136847E-5    1.394815498859505E-5     1.1072523385523701E-5    3.5606148632032228E-6
0.16999999999999998       1.0022146406270394E-5    1.0037468313398717E-5    1.0056457436427277E-5    1.0205414634721756E-5    1.0386588888844891E-5    1.1648241112880944E-5    1.2814155326204389E-5    1.4171638259688183E-5    1.1570989698837604E-5    3.8716381441135784E-6
0.175                     9.854427147037166E-6     9.86916267685363E-6      9.887418477693311E-6     1.003048528444053E-5     1.0204318462222431E-5    1.141696283530782E-5     1.2557986746034501E-5    1.4342325758963295E-5    1.2046255316100404E-5    4.204379990950827E-6
0.18                      9.695331805934351E-6     9.70950171981096E-6      9.727051172884752E-6     9.86445555043479E-6      1.0031076429098091E-5    1.119605812989217E-5     1.2306878868190479E-5    1.4460172634427983E-5    1.249236626999378E-5     4.559296256762663E-6
0.185                     9.544223129424426E-6     9.557849469418325E-6     9.574720919078945E-6     9.706636040259406E-6     9.866407865895578E-6     1.0984174058760577E-5    1.2062024938137778E-5    1.4526349011079744E-5    1.2903624872117237E-5    4.936625703156184E-6
0.19                      9.400451516585539E-6     9.413556070358384E-6     9.429777368284707E-6     9.55645343464608E-6      9.70973832094871E-6      1.0781751214061699E-5    1.1824288226687028E-5    1.4543155252953113E-5    1.3274813796770538E-5    5.336341963477184E-6
0.19499999999999995       9.263469297901205E-6     9.276073755660183E-6     9.291672477688413E-6     9.413373497767892E-6     9.560456927268296E-6     1.058857789893472E-5     1.1594195392583096E-5    1.4513878228808337E-5    1.360141147770449E-5     5.75810224546909E-6
0.19999999999999996       9.132796059416082E-6     9.144922113147244E-6     9.159925708313977E-6     9.276882980698341E-6     9.41804687000088E-6      1.0403842594631364E-5    1.1372769772685107E-5    1.4442229996389033E-5    1.3879785440027746E-5    6.201194061097695E-6
0.20500000000000002       9.007976469620379E-6     9.019645452942187E-6     9.034080822703312E-6     9.14651242648153E-6      9.282054972253117E-6     1.0227111335862795E-5    1.1158914950567413E-5    1.4333137880123581E-5    1.4107353411884278E-5    6.6644818035208055E-6
0.21000000000000002       8.888588180551573E-6     8.89982080829272E-6      8.913714002291315E-6     9.0218383760317E-6       9.152046295305015E-6     1.0058172558335114E-5    1.0953448812210612E-5    1.4191851725590977E-5    1.4282696987632477E-5    7.146355586258681E-6
0.21500000000000002       8.774251137265461E-6     8.785067461529633E-6     8.79844363745626E-6      8.902472075449668E-6     9.027612220892692E-6     9.89666149272902E-6      1.0756445266204502E-5    1.4023552696975248E-5    1.440561647673305E-5     7.644879016391805E-6
0.22000000000000003       8.664620451036662E-6     8.675039834997994E-6     8.687923239051297E-6     8.788055038801102E-6     8.908382338890659E-6     9.742130473787847E-6     1.0567281452689341E-5    1.3833239612915194E-5    1.447712065329049E-5     8.157116993873397E-6
0.22500000000000003       8.559379335642303E-6     8.569420395080682E-6     8.581834300529098E-6     8.678259013329946E-6     8.794018534467835E-6     9.594190901069571E-6     1.0385687241114182E-5    1.3625667630122352E-5    1.449935101506689E-5     8.679773056318152E-6
0.23000000000000004       8.458237660357348E-6     8.46791822865853E-6      8.479884901145198E-6     8.572783849396624E-6     8.684208067515186E-6     9.45249663922889E-6      1.0211603219906937E-5    1.3405242878456299E-5    1.4475446505993506E-5    9.209068507715598E-6
0.23500000000000004       8.360930675180654E-6     8.37026780100769E-6      8.381808502679287E-6     8.47135419352841E-6      8.578662523488734E-6     9.31670093409739E-6      1.0044785722060391E-5    1.3175922421344565E-5    1.4409001122278066E-5    9.740584078093565E-6