% Model:              Untitled.mph
% Version:            COMSOL 6.0.0.405
% Date:               Sep 30 2022, 12:57
% Dimension:          1
% Nodes:              241
% Expressions:        1
% Description:        Global
% -E_time (V)             Value
-0.3                      6.9932608118499E-10
-0.295                    5.137481594435689E-9
-0.29                     5.589508813269636E-9
-0.285                    5.939549450589076E-9
-0.27999999999999997      6.738385791733312E-9
-0.27499999999999997      7.861989118569992E-9
-0.27                     9.414616788562362E-9
-0.265                    1.126889577456015E-8
-0.26                     1.3475054569606384E-8
-0.255                    1.6151757931385004E-8
-0.25                     1.9388432651832693E-8
-0.245                    2.3279706931248572E-8
-0.24                     2.7955068744550272E-8
-0.235                    3.3571995119653065E-8
-0.22999999999999998      4.031298062739366E-8
-0.22499999999999998      4.839467234123935E-8
-0.21999999999999997      5.8102606408928245E-8
-0.215                    6.966484953027357E-8
-0.21                     8.350626111970927E-8
-0.20500000000000002      1.0006456105291658E-7
-0.2                      1.198487269209275E-7
-0.195                    1.4346723684449874E-7
-0.19                     1.7164090781010072E-7
-0.185                    2.0522161237555514E-7
-0.18                     2.452150757530285E-7
-0.175                    2.9280724900844705E-7
-0.16999999999999998      3.493949646245325E-7
-0.16499999999999998      4.166215022177175E-7
-0.16                     4.964177384673377E-7
-0.15499999999999997      5.910496500324619E-7
-0.15                     7.031730184641184E-7
-0.14500000000000002      8.35896262068029E-7
-0.13999999999999999      9.928523892201498E-7
-0.13499999999999998      1.178281123205818E-6
-0.13                     1.3971222805763876E-6
-0.12500000000000003      1.655121479903521E-6
-0.12                     1.9589491973027157E-6
-0.11499999999999999      2.316334044526644E-6
-0.11000000000000001      2.736210892096334E-6
-0.10499999999999998      3.228884051086761E-6
-0.1                      3.806205107717848E-6
-0.095                    4.481764104934968E-6
-0.09                     5.271091497712171E-6
-0.08500000000000002      6.19186656801788E-6
-0.07999999999999999      7.264125646009144E-6
-0.07500000000000001      8.51046040363327E-6
-0.06999999999999998      9.956192512059643E-6
-0.065                    1.1629505934519953E-5
-0.06                     1.3561511937256456E-5
-0.05499999999999999      1.5786214485703054E-5
-0.05000000000000002      1.8340335120554158E-5
-0.044999999999999984     2.1262946964853704E-5
-0.03999999999999998      2.459485782216489E-5
-0.034999999999999976     2.8377673505129332E-5
-0.02999999999999997      3.265246637964354E-5
-0.025000000000000022     3.7457973286701786E-5
-0.020000000000000018     4.282825518871527E-5
-0.015000000000000013     4.8789772781974036E-5
-0.009999999999999953     5.535787339141485E-5
-0.0050000000000000044    6.253275024040623E-5
0                         7.02950298522046E-5
0.0050000000000000044     7.860126750378474E-5
0.009999999999999953      8.737977826627382E-5
0.015000000000000013      9.652738594271382E-5
0.020000000000000018      1.0590780457779787E-4
0.024999999999999967      1.153524335558377E-4
0.030000000000000027      1.2466429404716945E-4
0.03500000000000003       1.3362560950327644E-4
0.03999999999999998       1.4200910477978564E-4
0.044999999999999984      1.495924820437293E-4
0.04999999999999993       1.5617480994426186E-4
0.05499999999999999       1.6159289286616507E-4
0.06                      1.657352763222043E-4
0.06500000000000006       1.6855158829783283E-4
0.07                      1.700555147579874E-4
0.07500000000000001       1.7032079242613007E-4
0.07999999999999996       1.6947092062336285E-4
0.08499999999999996       1.6766447713622675E-4
0.09000000000000002       1.6507862231830874E-4
0.09499999999999997       1.6189340761636457E-4
0.09999999999999998       1.582789251583992E-4
0.10499999999999998       1.5438639992264294E-4
0.10999999999999999       1.5034336475908895E-4
0.11499999999999999       1.4625233378906584E-4
0.12                      1.4219201634871968E-4
0.12499999999999994       1.382200625364105E-4
0.12999999999999995       1.3437649071605502E-4
0.13500000000000006       1.3068719297796387E-4
0.14                      1.2716715531523766E-4
0.14500000000000002       1.238232187496903E-4
0.14999999999999997       1.206563348793574E-4
0.15499999999999997       1.1766334288590854E-4
0.16000000000000003       1.1483833006278464E-4
0.16499999999999998       1.1217364877252832E-4
0.16999999999999998       1.0966066027365102E-4
0.175                     1.0729026721411986E-4
0.18                      1.0505328597886594E-4
0.185                     1.0294151928067757E-4
0.19                      1.0094824813735488E-4
0.19499999999999995       9.90586256781165E-5
0.19999999999999996       9.726967514022173E-5
0.20500000000000002       9.557483281599297E-5
0.21000000000000002       9.396448481990246E-5
0.21500000000000002       9.243234141939464E-5
0.22000000000000003       9.097399876887124E-5
0.22500000000000003       8.95843656116646E-5
0.23000000000000004       8.825823437672675E-5
0.23500000000000004       8.699116316786218E-5
0.24000000000000005       8.57792382338411E-5
0.24499999999999994       8.461874657079829E-5
0.24999999999999994       8.350622524983447E-5
0.25500000000000006       8.243853447746176E-5
0.25999999999999995       8.141280745845231E-5
0.26499999999999996       8.042639635954778E-5
0.26999999999999996       7.947686055021596E-5
0.27499999999999997       7.856195771505275E-5
0.2800000000000001        7.767962354512474E-5
0.2850000000000001        7.682795280429008E-5
0.29                      7.600518600752389E-5
0.295                     7.520969741884147E-5
0.3                       7.443998294641157E-5
0.295                     7.365397706167178E-5
0.29                      7.289838207830528E-5
0.2850000000000001        7.218722538524866E-5
0.2800000000000001        7.14963159848423E-5
0.2750000000000001        7.081741272562764E-5
0.26999999999999996       7.01568077442718E-5
0.26499999999999996       6.951511674749663E-5
0.25999999999999995       6.8888188062203E-5
0.25500000000000006       6.827400870435857E-5
0.25000000000000006       6.76722154585133E-5
0.24499999999999994       6.70817461682414E-5
0.23999999999999994       6.650100133254603E-5
0.23499999999999993       6.59285807603488E-5
0.22999999999999993       6.536319127206488E-5
0.22500000000000003       6.480338063494165E-5
0.22000000000000003       6.4247540323371E-5
0.21500000000000002       6.36939574128391E-5
0.21000000000000002       6.314077636539966E-5
0.20500000000000002       6.258594237508519E-5
0.20000000000000012       6.202716870773746E-5
0.19499999999999995       6.146190392500908E-5
0.19                      6.0887285314730766E-5
0.185                     6.030008581286134E-5
0.18                      5.9696658223853975E-5
0.17500000000000004       5.907287423381206E-5
0.16999999999999993       5.8424057228369973E-5
0.16499999999999992       5.7744910333821984E-5
0.15999999999999998       5.702944119999999E-5
0.15499999999999997       5.6270885093934425E-5
0.14999999999999997       5.546162886663535E-5
0.14500000000000002       5.459313959398535E-5
0.14                      5.365590288255817E-5
0.13500000000000006       5.263937716659761E-5
0.13000000000000006       5.153197182032732E-5
0.1250000000000001        5.032105837845268E-5
0.12                      4.8991664251876945E-5
0.11499999999999999       4.753573232755542E-5
0.10999999999999999       4.592789571470347E-5
0.10500000000000004       4.416124918425231E-5
0.10000000000000003       4.221618346397912E-5
0.09499999999999992       4.007694135445948E-5
0.09000000000000008       3.7729369059678316E-5
0.08499999999999996       3.5160362845258575E-5
0.07999999999999996       3.235880969556939E-5
0.07500000000000001       2.931632911057347E-5
0.07                      2.6027936774738753E-5
0.06500000000000006       2.249267439620009E-5
0.06000000000000005       1.871414865760121E-5
0.05499999999999994       1.470015461319227E-5
0.0500000000000001        1.0463887309969624E-5
0.044999999999999984      6.0257853475914554E-6
0.04000000000000015       1.4107718271299822E-6
0.03500000000000003       -3.3527924126182645E-6
0.029999999999999916      -8.232551818075356E-6
0.025000000000000022      -1.3192524408068097E-5
0.019999999999999907      -1.8194293301673566E-5
0.015000000000000069      -2.3198140860757277E-5
0.009999999999999953      -2.8159838485374387E-5
0.0050000000000000044     -3.305174012943687E-5
0                         -3.782264174504549E-5
-0.0050000000000000044    -4.244549246812056E-5
-0.009999999999999953     -4.688487145930393E-5
-0.014999999999999958     -5.1110730841076585E-5
-0.020000000000000073     -5.509789345916483E-5
-0.02499999999999991      -5.882514575542633E-5
-0.030000000000000027     -6.227537831982032E-5
-0.034999999999999865     -6.543569795397405E-5
-0.03999999999999998      -6.829731732994489E-5
-0.045000000000000095     -7.085533383472728E-5
-0.04999999999999993      -7.310846304732016E-5
-0.05500000000000008      -7.50587294124877E-5
-0.06000000000000005      -7.671067843560475E-5
-0.06500000000000003      -7.807169318158645E-5
-0.07                     -7.915237718901234E-5
-0.07500000000000001      -7.996439441819657E-5
-0.07999999999999999      -8.052111558849643E-5
-0.0850000000000001       -8.083768146299721E-5
-0.08999999999999994      -8.092997752467326E-5
-0.09500000000000006      -8.081427784296515E-5
-0.0999999999999999       -8.050729343489575E-5
-0.10500000000000001      -8.002600538670476E-5
-0.11000000000000013      -7.938736882146244E-5
-0.11499999999999999      -7.86080975239359E-5
-0.1200000000000001       -7.770451516794816E-5
-0.12499999999999994      -7.669241155667358E-5
-0.13000000000000006      -7.558690837538564E-5
-0.13500000000000004      -7.44023539292452E-5
-0.14000000000000004      -7.315224491828942E-5
-0.14500000000000002      -7.184916691077472E-5
-0.15                     -7.050475168229168E-5
-0.15499999999999997      -6.912965286003771E-5
-0.1600000000000001       -6.773354004937799E-5
-0.16499999999999995      -6.632510978379757E-5
-0.17000000000000007      -6.491211047207538E-5
-0.1749999999999999       -6.350137814607524E-5
-0.18000000000000002      -6.209888040526436E-5
-0.18500000000000014      -6.0709766922643E-5
-0.19                     -5.9338425327758345E-5
-0.19500000000000012      -5.798854100857367E-5
-0.19999999999999996      -5.666315892023221E-5
-0.20500000000000007      -5.536474542542407E-5
-0.21000000000000005      -5.409524862194348E-5
-0.21500000000000002      -5.285615623192741E-5
-0.22000000000000003      -5.16485505680747E-5
-0.22499999999999998      -5.047316022869908E-5
-0.22999999999999998      -4.933040814903816E-5
-0.2350000000000001       -4.822045566828142E-5
-0.23999999999999994      -4.714324244132558E-5
-0.24500000000000005      -4.6098522243411946E-5
-0.2499999999999999       -4.5085894860043494E-5
-0.255                    -4.410483428996638E-5
-0.2600000000000001       -4.3154713476424914E-5
-0.26499999999999996      -4.223482579086556E-5
-0.2700000000000001       -4.134440353762877E-5
-0.27499999999999997      -4.048263379382544E-5
-0.2800000000000001       -3.964867191012842E-5
-0.28500000000000003      -3.884165296846488E-5
-0.29000000000000004      -3.8060701440163086E-5
-0.295                    -3.730493923931927E-5
-0.3                      -3.657349233984596E-5
