% Model:              Untitled.mph
% Version:            COMSOL 6.0.0.405
% Date:               Sep 30 2022, 05:23
% Dimension:          1
% Nodes:              241
% Expressions:        1
% Description:        Global
% -E_time (V)             Value
-0.3                      6.3776230335300266E-9
-0.295                    3.466808940708901E-9
-0.29                     6.480264497618047E-9
-0.285                    6.441375580043711E-9
-0.27999999999999997      7.387598835329885E-9
-0.27499999999999997      8.747300221457176E-9
-0.27                     1.0622515615236422E-8
-0.265                    1.281274965230997E-8
-0.26                     1.5428782481553264E-8
-0.255                    1.8646779369793694E-8
-0.25                     2.2572660739790622E-8
-0.245                    2.7331315005159972E-8
-0.24                     3.310800995935771E-8
-0.235                    4.012556160191003E-8
-0.22999999999999998      4.8642806052551286E-8
-0.22499999999999998      5.900607838734298E-8
-0.21999999999999997      7.147831937036389E-8
-0.215                    8.663874578304431E-8
-0.21                     1.0503824132024195E-7
-0.20500000000000002      1.273458402821156E-7
-0.2                      1.543859877342746E-7
-0.195                    1.871557622776979E-7
-0.19                     2.2686059892907495E-7
-0.185                    2.7495781017402823E-7
-0.18                     3.332081229473137E-7
-0.175                    4.037376702040038E-7
-0.16999999999999998      4.891123246029434E-7
-0.16499999999999998      5.924266001122876E-7
-0.16                     7.174097578429231E-7
-0.15499999999999997      8.685521266458018E-7
-0.15                     1.0512550367760558E-6
-0.14500000000000002      1.2720081390370798E-6
-0.13999999999999999      1.538598197336608E-6
-0.13499999999999998      1.8603536352246372E-6
-0.13                     2.248429089245891E-6
-0.12500000000000003      2.71613383078963E-6
-0.12                     3.27930695905131E-6
-0.11499999999999999      3.956740454965784E-6
-0.11000000000000001      4.7706481298445555E-6
-0.10499999999999998      5.747173686255556E-6
-0.1                      6.916923870365968E-6
-0.095                    8.315502223798443E-6
-0.09                     9.984004309175425E-6
-0.08500000000000002      1.1969415529274367E-5
-0.07999999999999999      1.4324826995831352E-5
-0.07500000000000001      1.7109353070096236E-5
-0.06999999999999998      2.0387597057799586E-5
-0.065                    2.4228471980507854E-5
-0.06                     2.8703147477344796E-5
-0.05499999999999999      3.388187247960927E-5
-0.05000000000000002      3.9829433014029365E-5
-0.044999999999999984     4.659906822441998E-5
-0.03999999999999998      5.422481264750227E-5
-0.034999999999999976     6.27124844589699E-5
-0.02999999999999997      7.202990996055794E-5
-0.025000000000000022     8.20974450310747E-5
-0.020000000000000018     9.278035402519579E-5
-0.015000000000000013     1.038849994809464E-4
-0.009999999999999953     1.151608880554516E-4
-0.0050000000000000044    1.263102041260521E-4
0                         1.370054163780248E-4
0.0050000000000000044     1.4691392977956834E-4
0.009999999999999953      1.557269085431952E-4
0.015000000000000013      1.631878808705796E-4
0.020000000000000018      1.6911616640013363E-4
0.024999999999999967      1.7342091611287502E-4
0.030000000000000027      1.7610351897140352E-4
0.03500000000000003       1.7724870722832093E-4
0.03999999999999998       1.770070277085048E-4
0.044999999999999984      1.7557272128510766E-4
0.04999999999999993       1.7316119036327028E-4
0.05499999999999999       1.6998934848060315E-4
0.06                      1.6626074884235534E-4
0.06500000000000006       1.621560087459372E-4
0.07                      1.5782802944903058E-4
0.07500000000000001       1.5340096453415352E-4
0.07999999999999996       1.4897174754871953E-4
0.08499999999999996       1.446131088470063E-4
0.09000000000000002       1.403772514216414E-4
0.09499999999999997       1.362996153782638E-4
0.09999999999999998       1.324023854729976E-4
0.10499999999999998       1.2869756562410082E-4
0.10999999999999999       1.2518955911729884E-4
0.11499999999999999       1.218772633044112E-4
0.12                      1.1875572516313829E-4
0.12499999999999994       1.1581742009899522E-4
0.12999999999999995       1.1305321928639838E-4
0.13500000000000006       1.10453106590123E-4
0.14                      1.0800669852229422E-4
0.14500000000000002       1.0570361208819912E-4
0.14999999999999997       1.0353463780270295E-4
0.15499999999999997       1.0149198170208953E-4
0.16000000000000003       9.955959450414974E-5
0.16499999999999998       9.773392096454544E-5
0.16999999999999998       9.600761806192181E-5
0.175                     9.437023255378823E-5
0.18                      9.28148979538429E-5
0.185                     9.133672866646909E-5
0.19                      8.993013099789198E-5
0.19499999999999995       8.858945000284392E-5
0.19999999999999996       8.730988244872117E-5
0.20500000000000002       8.608720136079424E-5
0.21000000000000002       8.491741229262224E-5
0.21500000000000002       8.379681020403141E-5
0.22000000000000003       8.272205166121003E-5
0.22500000000000003       8.169009628510985E-5
0.23000000000000004       8.06981478836046E-5
0.23500000000000004       7.974364076077065E-5
0.24000000000000005       7.882422807393408E-5
0.24499999999999994       7.793775827236994E-5
0.24999999999999994       7.708225361551594E-5
0.25500000000000006       7.625589484521231E-5
0.25999999999999995       7.545700730442581E-5
0.26499999999999996       7.468404711335665E-5
0.26999999999999996       7.393558874686203E-5
0.27499999999999997       7.321031426062761E-5
0.2800000000000001        7.250700357744702E-5
0.2850000000000001        7.182452561720561E-5
0.29                      7.116183032229754E-5
0.295                     7.051794151961874E-5
0.3                       6.98919504893187E-5
0.295                     6.927680816009388E-5
0.29                      6.867897832321443E-5
0.2850000000000001        6.809999955750186E-5
0.2800000000000001        6.753563975322206E-5
0.2750000000000001        6.698412952486319E-5
0.26999999999999996       6.644593265939316E-5
0.26499999999999996       6.592066177292119E-5
0.25999999999999995       6.540721748484623E-5
0.25500000000000006       6.490483795477443E-5
0.25000000000000006       6.441301699695463E-5
0.24499999999999994       6.393113964342278E-5
0.23999999999999994       6.34585017282096E-5
0.23499999999999993       6.299441558115994E-5
0.22999999999999993       6.253818723236191E-5
0.22500000000000003       6.208906594652562E-5
0.22000000000000003       6.16462333430247E-5
0.21500000000000002       6.120879765658583E-5
0.21000000000000002       6.0775771352874714E-5
0.20500000000000002       6.0346042628396785E-5
0.20000000000000012       5.991834653114455E-5
0.19499999999999995       5.9491231031623096E-5
0.19                      5.906301486176745E-5
0.185                     5.863173695035126E-5
0.18                      5.81950964532661E-5
0.17500000000000004       5.7750381091414835E-5
0.16999999999999993       5.729438139976584E-5
0.16499999999999992       5.6823288463032095E-5
0.15999999999999998       5.633257228294253E-5
0.15499999999999997       5.58168374621869E-5
0.14999999999999997       5.526965257947371E-5
0.14500000000000002       5.468334940343784E-5
0.14                      5.404878798107285E-5
0.13500000000000006       5.33550837869627E-5
0.13000000000000006       5.25892937071613E-5
0.1250000000000001        5.1736058871427346E-5
0.12                      5.0775387070445E-5
0.11499999999999999       4.969321787425669E-5
0.10999999999999999       4.845734024645259E-5
0.10500000000000004       4.703927541778163E-5
0.10000000000000003       4.540577771174856E-5
0.09499999999999992       4.351776313325064E-5
0.09000000000000008       4.133081515677868E-5
0.08499999999999996       3.8795104279636674E-5
0.07999999999999996       3.585561748831994E-5
0.07500000000000001       3.2452906676287496E-5
0.07                      2.8524482350091164E-5
0.06500000000000006       2.4007050424417875E-5
0.06000000000000005       1.883978176169002E-5
0.05499999999999994       1.2968756094294482E-5
0.0500000000000001        6.352621719546273E-6
0.044999999999999984      -1.0306590846670388E-6
0.04000000000000015       -9.17635534817883E-6
0.03500000000000003       -1.80454808624916E-5
0.029999999999999916      -2.755812147307413E-5
0.025000000000000022      -3.758907038552707E-5
0.019999999999999907      -4.7969847953429716E-5
0.015000000000000069      -5.848790424706731E-5
0.009999999999999953      -6.889830932133825E-5
0.0050000000000000044     -7.893818262613514E-5
0                         -8.834497488844797E-5
-0.0050000000000000044    -9.687569380886673E-5
-0.009999999999999953     -1.043254344399638E-4
-0.014999999999999958     -1.1054237570366866E-4
-0.020000000000000073     -1.1543693803964112E-4
-0.02499999999999991      -1.189841314529252E-4
-0.030000000000000027     -1.2121939766866158E-4
-0.034999999999999865     -1.2222922336491512E-4
-0.03999999999999998      -1.221384276526935E-4
-0.045000000000000095     -1.2109623562430091E-4
-0.04999999999999993      -1.1926299909619763E-4
-0.05500000000000008      -1.1679887063834574E-4
-0.06000000000000005      -1.1385512863858602E-4
-0.06500000000000003      -1.1056832379937493E-4
-0.07                     -1.070570140328484E-4
-0.07500000000000001      -1.0342061197068005E-4
-0.07999999999999999      -9.973978940869773E-5
-0.0850000000000001       -9.607791330839024E-5
-0.08999999999999994      -9.248306770992915E-5
-0.09500000000000006      -8.899031392535433E-5
-0.0999999999999999       -8.56239446149182E-5
-0.10500000000000001      -8.239958125069687E-5
-0.11000000000000013      -7.932603611522543E-5
-0.11499999999999999      -7.640690745591456E-5
-0.1200000000000001       -7.36419063512723E-5
-0.12499999999999994      -7.102793288874773E-5
-0.13000000000000006      -6.855993041790329E-5
-0.13500000000000004      -6.623155108968918E-5
-0.14000000000000004      -6.403566526936761E-5
-0.14500000000000002      -6.196474409278042E-5
-0.15                     -6.001114046562249E-5
-0.15499999999999997      -5.8167290099207494E-5
-0.1600000000000001       -5.64258507307E-5
-0.16499999999999995      -5.477979434649243E-5
-0.17000000000000007      -5.3222464158695325E-5
-0.1749999999999999       -5.174760551139392E-5
-0.18000000000000002      -5.034990869190312E-5
-0.18500000000000014      -4.902422274086999E-5
-0.19                     -4.776351478919184E-5
-0.19500000000000012      -4.6564721842851195E-5
-0.19999999999999996      -4.542375142643946E-5
-0.20500000000000007      -4.433564393108769E-5
-0.21000000000000005      -4.329673584929538E-5
-0.21500000000000002      -4.230416630855402E-5
-0.22000000000000003      -4.1354962774692934E-5
-0.22499999999999998      -4.0446201006436964E-5
-0.22999999999999998      -3.957530114942138E-5
-0.2350000000000001       -3.873994867390181E-5
-0.23999999999999994      -3.793797350034488E-5
-0.24500000000000005      -3.716735557684046E-5
-0.2499999999999999       -3.6426244087436345E-5
-0.255                    -3.571293651458467E-5
-0.2600000000000001       -3.502585517218741E-5
-0.26499999999999996      -3.4363538249369374E-5
-0.2700000000000001       -3.372463297735555E-5
-0.27499999999999997      -3.3107885475625135E-5
-0.2800000000000001       -3.2512131164545604E-5
-0.28500000000000003      -3.193628730511453E-5
-0.29000000000000004      -3.137934630994677E-5
-0.295                    -3.084036927097828E-5
-0.3                      -3.0318480076673334E-5
