% Model:              Untitled.mph
% Version:            COMSOL 6.0.0.405
% Date:               Jul 7 2022, 01:50
% Dimension:          1
% Nodes:              241
% Expressions:        1
% Description:        Global
% -E_time (V)             Value
-0.3                      4.8835385829540156E-8
-0.295                    3.428465611944289E-9
-0.29                     5.313292187342424E-9
-0.285                    5.652532660347741E-9
-0.27999999999999997      6.4351576992107655E-9
-0.27499999999999997      7.587694050791791E-9
-0.27                     9.248114037629963E-9
-0.265                    1.1180412638884155E-8
-0.26                     1.3473593030323336E-8
-0.255                    1.6302656599478605E-8
-0.25                     1.9762200093463E-8
-0.245                    2.395805856720603E-8
-0.24                     2.905695654546058E-8
-0.235                    3.5260758858189386E-8
-0.22999999999999998      4.282522508541826E-8
-0.22499999999999998      5.193756472866107E-8
-0.21999999999999997      6.304354603344649E-8
-0.215                    7.654873853487765E-8
-0.21                     9.295585532234852E-8
-0.20500000000000002      1.1288787103105973E-7
-0.2                      1.3709987268970123E-7
-0.195                    1.6650834436494333E-7
-0.19                     2.022259508413405E-7
-0.185                    2.4560293080760834E-7
-0.18                     2.9827736305751376E-7
-0.175                    3.622359292782906E-7
-0.16999999999999998      4.3988722396152977E-7
-0.16499999999999998      5.341500848725575E-7
-0.16                     6.485598268901457E-7
-0.15499999999999997      7.873957222714353E-7
-0.15                     9.558335583022893E-7
-0.14500000000000002      1.1601275892293318E-6
-0.13999999999999999      1.4078266375409509E-6
-0.13499999999999998      1.7080294136234498E-6
-0.13                     2.0716841927194777E-6
-0.12500000000000003      2.51193763209432E-6
-0.12                     3.04453646072777E-6
-0.11499999999999999      3.688283641923367E-6
-0.11000000000000001      4.465546853857061E-6
-0.10499999999999998      5.4028110173599354E-6
-0.1                      6.531257159518741E-6
-0.095                    7.887335935927074E-6
-0.09                     9.513284259416905E-6
-0.08500000000000002      1.1457506299124167E-5
-0.07999999999999999      1.3774704575782402E-5
-0.07500000000000001      1.652560299897424E-5
-0.06999999999999998      1.9776053697706927E-5
-0.065                    2.3595269567339906E-5
-0.06                     2.8052886973204646E-5
-0.05499999999999999      3.3214558915072574E-5
-0.05000000000000002      3.9135838824767185E-5
-0.044999999999999984     4.5854277401732104E-5
-0.03999999999999998      5.337995697145996E-5
-0.034999999999999976     6.168514802412971E-5
-0.02999999999999997      7.069436120403085E-5
-0.025000000000000022     8.027667545554211E-5
-0.020000000000000018     9.024264293019597E-5
-0.015000000000000013     1.003480282102145E-4
-0.009999999999999953     1.1030588505400484E-4
-0.0050000000000000044    1.1980694293144363E-4
0                         1.2854623085622717E-4
0.0050000000000000044     1.362519172057266E-4
0.009999999999999953      1.427112535830107E-4
0.015000000000000013      1.4778882970129656E-4
0.020000000000000018      1.5143408479759157E-4
0.024999999999999967      1.5367758561863557E-4
0.030000000000000027      1.5461805427194154E-4
0.03500000000000003       1.5440372121880108E-4
0.03999999999999998       1.5321196102081457E-4
0.044999999999999984      1.5123051878085026E-4
0.04999999999999993       1.4864242872158684E-4
0.05499999999999999       1.4561546113136742E-4
0.06                      1.4229594383442963E-4
0.06500000000000006       1.3880621261168076E-4
0.07                      1.3524471712724525E-4
0.07500000000000001       1.3168783513303227E-4
0.07999999999999996       1.2819260997225292E-4
0.08499999999999996       1.247998334980537E-4
0.09000000000000002       1.2153709251019083E-4
0.09499999999999997       1.1842155572550398E-4
0.09999999999999998       1.1546239395431721E-4
0.10499999999999998       1.1266280283155678E-4
0.10999999999999999       1.1002164352357587E-4
0.11499999999999999       1.0753474105224708E-4
0.12                      1.0519588972465315E-4
0.12499999999999994       1.0299761627811014E-4
0.12999999999999995       1.0093174769017289E-4
0.13500000000000006       9.898982472996607E-5
0.14                      9.716416399650682E-5
0.14500000000000002       9.544945334174986E-5
0.14999999999999997       9.383317242220028E-5
0.15499999999999997       9.230566597427856E-5
0.16000000000000003       9.086229531995912E-5
0.16499999999999998       8.949782614871027E-5
0.16999999999999998       8.820561802408765E-5
0.175                     8.697981917929332E-5
0.18                      8.581564323909509E-5
0.185                     8.470858416746512E-5
0.19                      8.365431197265192E-5
0.19499999999999995       8.264890967426687E-5
0.19999999999999996       8.168886799071821E-5
0.20500000000000002       8.077096951191567E-5
0.21000000000000002       7.989225628038668E-5
0.21500000000000002       7.905003368802196E-5
0.22000000000000003       7.824184830477962E-5
0.22500000000000003       7.7465456626064E-5
0.23000000000000004       7.671880480902214E-5
0.23500000000000004       7.6000013472507E-5
0.24000000000000005       7.530736112646947E-5
0.24499999999999994       7.463926815619365E-5
0.24999999999999994       7.399428325005873E-5
0.25500000000000006       7.33710714666354E-5
0.25999999999999995       7.276840320156987E-5
0.26499999999999996       7.218514417533691E-5
0.26999999999999996       7.162024653037516E-5
0.27499999999999997       7.107274086126139E-5
0.2800000000000001        7.054172902683222E-5
0.2850000000000001        7.002637768651082E-5
0.29                      6.952591250314716E-5
0.295                     6.903961293491661E-5
0.3                       6.856680754848703E-5
0.295                     6.810363244394598E-5
0.29                      6.765325555177811E-5
0.2850000000000001        6.721624152944639E-5
0.2800000000000001        6.67902271845444E-5
0.2750000000000001        6.637420628339194E-5
0.26999999999999996       6.596829612803049E-5
0.26499999999999996       6.557212663208816E-5
0.25999999999999995       6.51849755252116E-5
0.25500000000000006       6.480631962548113E-5
0.25000000000000006       6.443576281501772E-5
0.24499999999999994       6.407284119544759E-5
0.23999999999999994       6.371704241520267E-5
0.23499999999999993       6.336785984219853E-5
0.22999999999999993       6.302477363048698E-5
0.22500000000000003       6.268722037389389E-5
0.22000000000000003       6.235458481119955E-5
0.21500000000000002       6.202619206590384E-5
0.21000000000000002       6.170128939585388E-5
0.20500000000000002       6.13790239156227E-5
0.20000000000000012       6.10584188022984E-5
0.19499999999999995       6.073834477179314E-5
0.19                      6.0417484800062685E-5
0.185                     6.009429161736167E-5
0.18                      5.976693678905023E-5
0.17500000000000004       5.9433249364011555E-5
0.16999999999999993       5.9090641907755796E-5
0.16499999999999992       5.873602153502958E-5
0.15999999999999998       5.836568308187521E-5
0.15499999999999997       5.797518104454534E-5
0.14999999999999997       5.755917644613599E-5
0.14500000000000002       5.711125432436723E-5
0.14                      5.662370709241707E-5
0.13500000000000006       5.608727870971431E-5
0.13000000000000006       5.549086453725736E-5
0.1250000000000001        5.482116211716594E-5
0.12                      5.406226917658615E-5
0.11499999999999999       5.319333147686545E-5
0.10999999999999999       5.220110549403794E-5
0.10500000000000004       5.104251522895461E-5
0.10000000000000003       4.970318377135869E-5
0.09499999999999992       4.8137144340582845E-5
0.09000000000000008       4.630280497150544E-5
0.08499999999999996       4.415264885014985E-5
0.07999999999999996       4.163184391348832E-5
0.07500000000000001       3.867962013676048E-5
0.07                      3.523013467240637E-5
0.06500000000000006       3.121419534310826E-5
0.06000000000000005       2.6562220449619077E-5
0.05499999999999994       2.1208655717179814E-5
0.0500000000000001        1.5098097004956646E-5
0.044999999999999984      8.193202921109662E-6
0.04000000000000015       4.842127944689368E-7
0.03500000000000003       -8.000879710276717E-6
0.029999999999999916      -1.7186639876553854E-5
0.025000000000000022      -2.6941869699819457E-5
0.019999999999999907      -3.707664632218298E-5
0.015000000000000069      -4.7346136089559364E-5
0.009999999999999953      -5.7463219992616336E-5
0.0050000000000000044     -6.71185790228622E-5
0                         -7.600730072213099E-5
-0.0050000000000000044    -8.385777945436732E-5
-0.009999999999999953     -9.045758770081278E-5
-0.014999999999999958     -9.567170409593654E-5
-0.020000000000000073     -9.945001709193215E-5
-0.02499999999999991      -1.0182359074009503E-4
-0.030000000000000027     -1.0289165146175061E-4
-0.034999999999999865     -1.0280289925545532E-4
-0.03999999999999998      -1.0173510727335753E-4
-0.045000000000000095     -9.987633785805248E-5
-0.04999999999999993      -9.740987285221819E-5
-0.05500000000000008      -9.450367156241759E-5
-0.06000000000000005      -9.130419649734371E-5
-0.06500000000000003      -8.793386896715039E-5
-0.07                     -8.449118403054502E-5
-0.07500000000000001      -8.105253457080872E-5
-0.07999999999999999      -7.76749577582628E-5
-0.0850000000000001       -7.439922617155742E-5
-0.08999999999999994      -7.12529009544845E-5
-0.09500000000000006      -6.825312229033328E-5
-0.0999999999999999       -6.54090302102699E-5
-0.10500000000000001      -6.272378748828665E-5
-0.11000000000000013      -6.019622158705609E-5
-0.11499999999999999      -5.7822124659175584E-5
-0.1200000000000001       -5.559526009787216E-5
-0.12499999999999994      -5.350812646718566E-5
-0.13000000000000006      -5.1552526368445105E-5
-0.13500000000000004      -4.971998101227802E-5
-0.14000000000000004      -4.800202415463585E-5
-0.14500000000000002      -4.639040338786721E-5
-0.15                     -4.487721217520355E-5
-0.15499999999999997      -4.345497145559109E-5
-0.1600000000000001       -4.211667497438775E-5
-0.16499999999999995      -4.085580844178579E-5
-0.17000000000000007      -3.9666349805548286E-5
-0.1749999999999999       -3.8543260058738284E-5
-0.18000000000000002      -3.748201321115136E-5
-0.18500000000000014      -3.6476593717623074E-5
-0.19                     -3.552214332064263E-5
-0.19500000000000012      -3.4615420662175015E-5
-0.19999999999999996      -3.375323810712121E-5
-0.20500000000000007      -3.2932212912137E-5
-0.21000000000000005      -3.2149328438913876E-5
-0.21500000000000002      -3.140198729651396E-5
-0.22000000000000003      -3.0687785742322226E-5
-0.22499999999999998      -3.000447244840628E-5
-0.22999999999999998      -2.9349999637706324E-5
-0.2350000000000001       -2.8722511067669227E-5
-0.23999999999999994      -2.8120302160472524E-5
-0.24500000000000005      -2.7541803662436427E-5
-0.2499999999999999       -2.698557596327671E-5
-0.255                    -2.6450297324908233E-5
-0.2600000000000001       -2.593475044668847E-5
-0.26499999999999996      -2.543781256691708E-5
-0.2700000000000001       -2.4958447389860145E-5
-0.27499999999999997      -2.449569704863044E-5
-0.2800000000000001       -2.404867458511284E-5
-0.28500000000000003      -2.361655743931103E-5
-0.29000000000000004      -2.3198581723959124E-5
-0.295                    -2.2794037059605983E-5
-0.3                      -2.2402261949889043E-5
