% Model:              Untitled.mph
% Version:            COMSOL 6.0.0.405
% Date:               Jul 7 2022, 12:15
% Dimension:          1
% Nodes:              241
% Expressions:        1
% Description:        Global
% -E_time (V)             Value
-0.3                      4.691981387463002E-8
-0.295                    2.795386354681006E-9
-0.29                     5.354155609632476E-9
-0.285                    5.694054720237326E-9
-0.27999999999999997      6.435790166749777E-9
-0.27499999999999997      7.578658153920425E-9
-0.27                     9.242322056578629E-9
-0.265                    1.117202547586897E-8
-0.26                     1.345923224168894E-8
-0.255                    1.628329079920996E-8
-0.25                     1.9737146905319832E-8
-0.245                    2.3924574760765954E-8
-0.24                     2.901195194351261E-8
-0.235                    3.5200636018327955E-8
-0.22999999999999998      4.272173026762695E-8
-0.22499999999999998      5.188515800264733E-8
-0.21999999999999997      6.292138033280634E-8
-0.215                    7.63663129323276E-8
-0.21                     9.270869440713539E-8
-0.20500000000000002      1.1255378763453661E-7
-0.2                      1.366508249720458E-7
-0.195                    1.6590700391618092E-7
-0.19                     2.0142215505998647E-7
-0.185                    2.4452982595948126E-7
-0.18                     2.968460120271877E-7
-0.175                    3.603281292995141E-7
-0.16999999999999998      4.3734602434541677E-7
-0.16499999999999998      5.307672680899757E-7
-0.16                     6.440594089794548E-7
-0.15499999999999997      7.814122457335826E-7
-0.15                     9.47883587792466E-7
-0.14500000000000002      1.1495723624498762E-6
-0.13999999999999999      1.3938232498609847E-6
-0.13499999999999998      1.689467205404649E-6
-0.13                     2.0471021468413987E-6
-0.12500000000000003      2.4794175689676916E-6
-0.12                     3.0015656523675654E-6
-0.11499999999999999      3.6315792056698908E-6
-0.11000000000000001      4.390833043926536E-6
-0.10499999999999998      5.304539525523413E-6
-0.1                      6.402260141094303E-6
-0.095                    7.718402304008742E-6
-0.09                     9.292652773030645E-6
-0.08500000000000002      1.117027545858876E-5
-0.07999999999999999      1.3402171152772683E-5
-0.07500000000000001      1.6044560409171303E-5
-0.06999999999999998      1.9158110752101346E-5
-0.065                    2.2806291216411644E-5
-0.06                     2.7052711353148008E-5
-0.05499999999999999      3.195720503548378E-5
-0.05000000000000002      3.757047520431926E-5
-0.044999999999999984     4.3927252371652224E-5
-0.03999999999999998      5.1038163547900423E-5
-0.034999999999999976     5.8880870382004614E-5
-0.02999999999999997      6.739149201898272E-5
-0.025000000000000022     7.645779976714113E-5
-0.020000000000000018     8.591601054934403E-5
-0.015000000000000013     9.555301810332343E-5
-0.009999999999999953     1.0511539995475143E-4
-0.0050000000000000044    1.143254510023824E-4
0                         1.2290296187182254E-4
0.0050000000000000044     1.3058987191816204E-4
0.009999999999999953      1.3717382737571534E-4
0.015000000000000013      1.4250654204073096E-4
0.020000000000000018      1.4651385282323296E-4
0.024999999999999967      1.4919620836073607E-4
0.030000000000000027      1.5062041185342516E-4
0.03500000000000003       1.509050885299318E-4
0.03999999999999998       1.5020313025387457E-4
0.044999999999999984      1.4868423061989528E-4
0.04999999999999993       1.4651982781263648E-4
0.05499999999999999       1.4387171650327794E-4
0.06                      1.4088462018780105E-4
0.06500000000000006       1.3768232796766943E-4
0.07                      1.3436663803945614E-4
0.07500000000000001       1.310182569898973E-4
0.07999999999999996       1.2769888329463195E-4
0.08499999999999996       1.244538646753924E-4
0.09000000000000002       1.2131499718200393E-4
0.09499999999999997       1.1830319212919134E-4
0.09999999999999998       1.1543086029195815E-4
0.10499999999999998       1.1270394962185852E-4
0.10999999999999999       1.1012362850129576E-4
0.11499999999999999       1.0768763871541446E-4
0.12                      1.053913580853972E-4
0.12499999999999994       1.0322861794897725E-4
0.12999999999999995       1.0119231972454227E-4
0.13500000000000006       9.927489060644753E-5
0.14                      9.746931436966833E-5
0.14500000000000002       9.577118147275553E-5
0.14999999999999997       9.416828612885265E-5
0.15499999999999997       9.265121925882368E-5
0.16000000000000003       9.121579962163471E-5
0.16499999999999998       8.98572033147114E-5
0.16999999999999998       8.856904318526968E-5
0.175                     8.734567373874093E-5
0.18                      8.618252301024119E-5
0.185                     8.507527842877863E-5
0.19                      8.401976911802592E-5
0.19499999999999995       8.301221730420188E-5
0.19999999999999996       8.204924137299517E-5
0.20500000000000002       8.112773825873447E-5
0.21000000000000002       8.024485066711749E-5
0.21500000000000002       7.939797355108906E-5
0.22000000000000003       7.858473372415345E-5
0.22500000000000003       7.780295918603824E-5
0.23000000000000004       7.705065951022625E-5
0.23500000000000004       7.632601153624257E-5
0.24000000000000005       7.562734354652785E-5
0.24499999999999994       7.495311982415994E-5
0.24999999999999994       7.430192762073552E-5
0.25500000000000006       7.367246574982427E-5
0.25999999999999995       7.306353402979184E-5
0.26499999999999996       7.247402369777787E-5
0.26999999999999996       7.190290890005399E-5
0.27499999999999997       7.134923908602262E-5
0.2800000000000001        7.081213215275782E-5
0.2850000000000001        7.029076828417126E-5
0.29                      6.978438443035954E-5
0.295                     6.929226935149928E-5
0.3                       6.88137591597611E-5
0.295                     6.833169042564048E-5
0.29                      6.78629842732447E-5
0.2850000000000001        6.741366924826831E-5
0.2800000000000001        6.697554682968291E-5
0.2750000000000001        6.654558570458438E-5
0.26999999999999996       6.612582490344582E-5
0.26499999999999996       6.571635117815785E-5
0.25999999999999995       6.531560832145473E-5
0.25500000000000006       6.492279008955311E-5
0.25000000000000006       6.45376453037938E-5
0.24499999999999994       6.415966623225782E-5
0.23999999999999994       6.37881613577238E-5
0.23499999999999993       6.34225083855854E-5
0.22999999999999993       6.306211138459054E-5
0.22500000000000003       6.270630525769379E-5
0.22000000000000003       6.235435583605076E-5
0.21500000000000002       6.200547233757191E-5
0.21000000000000002       6.165878562955826E-5
0.20500000000000002       6.131331945128202E-5
0.20000000000000012       6.096796802176365E-5
0.19499999999999995       6.0621469991359234E-5
0.19                      6.027237344369087E-5
0.185                     5.991899379665495E-5
0.18                      5.955936450055363E-5
0.17500000000000004       5.919117788520466E-5
0.16999999999999993       5.881171381382485E-5
0.16499999999999992       5.84177541819365E-5
0.15999999999999998       5.8005480729860824E-5
0.15499999999999997       5.757035302898343E-5
0.14999999999999997       5.710696317695771E-5
0.14500000000000002       5.660886343472941E-5
0.14                      5.60683627195406E-5
0.13500000000000006       5.5476287704854354E-5
0.13000000000000006       5.4821704414669934E-5
0.1250000000000001        5.409159677998335E-5
0.12                      5.327049989169836E-5
0.11499999999999999       5.2338255439436265E-5
0.10999999999999999       5.128217203576322E-5
0.10500000000000004       5.006107462747872E-5
0.10000000000000003       4.866127408753921E-5
0.09499999999999992       4.7039536072869886E-5
0.09000000000000008       4.515678595184032E-5
0.08499999999999996       4.296884607515393E-5
0.07999999999999996       4.042509750953236E-5
0.07500000000000001       3.746984232899319E-5
0.07                      3.404321205974279E-5
0.06500000000000006       3.008281671862338E-5
0.06000000000000005       2.5526470244240576E-5
0.05499999999999994       2.0316156231269014E-5
0.0500000000000001        1.4403416658378305E-5
0.044999999999999984      7.756206578676159E-6
0.04000000000000015       3.6702716627793027E-7
0.03500000000000003       -7.738331170646801E-6
0.029999999999999916      -1.649271213853645E-5
0.025000000000000022      -2.5780523692252988E-5
0.019999999999999907      -3.54346109013802E-5
0.015000000000000069      -4.523880890172018E-5
0.009999999999999953      -5.493793073150208E-5
0.0050000000000000044     -6.425382193385451E-5
0                         -7.290707698433958E-5
-0.0050000000000000044    -8.064174776151996E-5
-0.009999999999999953     -8.724881104455243E-5
-0.014999999999999958     -9.258424964623705E-5
-0.020000000000000073     -9.657873060426491E-5
-0.02499999999999991      -9.923769798245607E-5
-0.030000000000000027     -1.006327268465802E-4
-0.034999999999999865     -1.0088668246786748E-4
-0.03999999999999998      -1.0015597048544075E-4
-0.045000000000000095     -9.861300155244331E-5
-0.04999999999999993      -9.643116194352684E-5
-0.05500000000000008      -9.377350773557565E-5
-0.06000000000000005      -9.07854453143656E-5
-0.06500000000000003      -8.759098689281857E-5
-0.07                     -8.429181047100325E-5
-0.07500000000000001      -8.096826340017235E-5
-0.07999999999999999      -7.768153340247055E-5
-0.0850000000000001       -7.447637589929384E-5
-0.08999999999999994      -7.138396498395328E-5
-0.09500000000000006      -6.842459422216898E-5
-0.0999999999999999       -6.561007985119857E-5
-0.10500000000000001      -6.294580846580681E-5
-0.11000000000000013      -6.0432426255235834E-5
-0.11499999999999999      -5.806719561760506E-5
-0.1200000000000001       -5.5845058596676615E-5
-0.12499999999999994      -5.375945248859226E-5
-0.13000000000000006      -5.18029232569135E-5
-0.13500000000000004      -4.996757795240948E-5
-0.14000000000000004      -4.8245410680681766E-5
-0.14500000000000002      -4.66285305007743E-5
-0.15                     -4.510931481071006E-5
-0.15499999999999997      -4.368050756920455E-5
-0.1600000000000001       -4.233527747201435E-5
-0.16499999999999995      -4.106724720553525E-5
-0.17000000000000007      -3.9870501794488315E-5
-0.1749999999999999       -3.874007825786696E-5
-0.18000000000000002      -3.767116295747143E-5
-0.18500000000000014      -3.6657279353085245E-5
-0.19                     -3.56957752092078E-5
-0.19500000000000012      -3.478292424421987E-5
-0.19999999999999996      -3.391422851912276E-5
-0.20500000000000007      -3.308650028160816E-5
-0.21000000000000005      -3.2297256140057406E-5
-0.21500000000000002      -3.1543854033541985E-5
-0.22000000000000003      -3.0823725072767993E-5
-0.22499999999999998      -3.0134649429602655E-5
-0.22999999999999998      -2.9474642081559687E-5
-0.2350000000000001       -2.884183780882983E-5
-0.23999999999999994      -2.82345109450681E-5
-0.24500000000000005      -2.7651093065177855E-5
-0.2499999999999999       -2.7090147314207558E-5
-0.255                    -2.6550346198079927E-5
-0.2600000000000001       -2.6030465203491658E-5
-0.26499999999999996      -2.552937641040677E-5
-0.2700000000000001       -2.5046038277565627E-5
-0.27499999999999997      -2.4579486697175576E-5
-0.2800000000000001       -2.412882832752319E-5
-0.28500000000000003      -2.3693234459471262E-5
-0.29000000000000004      -2.3271935075640038E-5
-0.295                    -2.2864213611269027E-5
-0.3                      -2.246940243549292E-5
