% Model:              Untitled.mph
% Version:            COMSOL 6.0.0.405
% Date:               Sep 30 2022, 20:36
% Dimension:          1
% Nodes:              241
% Expressions:        1
% Description:        Global
% -E_time (V)             Value
-0.3                      4.5478910371690324E-11
-0.295                    1.2635537968640007E-9
-0.29                     2.1084600372129383E-9
-0.285                    2.3378507516652593E-9
-0.27999999999999997      2.617674819942663E-9
-0.27499999999999997      2.9900597848970744E-9
-0.27                     3.4555439711832934E-9
-0.265                    3.998106115556071E-9
-0.26                     4.630313827439615E-9
-0.255                    5.372264206574972E-9
-0.25                     6.239078891750768E-9
-0.245                    7.247241638998773E-9
-0.24                     8.418574707452895E-9
-0.235                    9.778731859628223E-9
-0.22999999999999998      1.1356533528169069E-8
-0.22499999999999998      1.3185086555347902E-8
-0.21999999999999997      1.5302775870095526E-8
-0.215                    1.7753840326053246E-8
-0.21                     2.058912211352625E-8
-0.20500000000000002      2.38670981148952E-8
-0.2                      2.7655038819057534E-8
-0.195                    3.2038022313969483E-8
-0.19                     3.7090775101151115E-8
-0.185                    4.292084425137215E-8
-0.18                     4.96469928824964E-8
-0.175                    5.7403906732675226E-8
-0.16999999999999998      6.634641988355516E-8
-0.16499999999999998      7.665234228353983E-8
-0.16                     8.852579260701831E-8
-0.15499999999999997      1.0220107420383452E-7
-0.15                     1.1794709647286061E-7
-0.14500000000000002      1.3607243556578134E-7
-0.13999999999999999      1.569311292314606E-7
-0.13499999999999998      1.8092930943849273E-7
-0.13                     2.0853279162964836E-7
-0.12500000000000003      2.4027575577578873E-7
-0.12                     2.767706725871552E-7
-0.11499999999999999      3.187196486833583E-7
-0.11000000000000001      3.669273873338088E-7
-0.10499999999999998      4.2231598671334085E-7
-0.1                      4.859418255900881E-7
-0.095                    5.59014817040404E-7
-0.09                     6.429203441337401E-7
-0.08500000000000002      7.392442273892688E-7
-0.07999999999999999      8.498011118214361E-7
-0.07500000000000001      9.766667009438232E-7
-0.06999999999999998      1.1222143052055225E-6
-0.065                    1.2891562115029959E-6
-0.06                     1.480590416491908E-6
-0.05499999999999999      1.700053296362783E-6
-0.05000000000000002      1.9515788053243575E-6
-0.044999999999999984     2.23976479849048E-6
-0.03999999999999998      2.5698470544458114E-6
-0.034999999999999976     2.9477815181727376E-6
-0.02999999999999997      3.380335182727617E-6
-0.025000000000000022     3.875185860481061E-6
-0.020000000000000018     4.441030839297952E-6
-0.015000000000000013     5.0877040470626275E-6
-0.009999999999999953     5.826300823541607E-6
-0.0050000000000000044    6.669308677424237E-6
0                         7.630741434843671E-6
0.0050000000000000044     8.726272900246415E-6
0.009999999999999953      9.973364478173196E-6
0.015000000000000013      1.139137906486544E-5
0.020000000000000018      1.3001670828169365E-5
0.024999999999999967      1.4827637175025111E-5
0.030000000000000027      1.689471519974887E-5
0.03500000000000003       1.923030019748983E-5
0.03999999999999998       2.1863558475775042E-5
0.044999999999999984      2.4825100886851726E-5
0.04999999999999993       2.814647760712951E-5
0.05499999999999999       3.185944935151106E-5
0.06                      3.5994986443921496E-5
0.06500000000000006       4.058194645974448E-5
0.07                      4.5645385564356464E-5
0.07500000000000001       5.120447084843811E-5
0.07999999999999996       5.7269984080325796E-5
0.08499999999999996       6.384144477087432E-5
0.09000000000000002       7.090393532684916E-5
0.09499999999999997       7.842478500713484E-5
0.09999999999999998       8.63503611102976E-5
0.10499999999999998       9.460331910864024E-5
0.10999999999999999       1.0308076503185215E-4
0.11499999999999999       1.1165386135153123E-4
0.12                      1.2016943137422984E-4
0.12499999999999994       1.284540507991833E-4
0.12999999999999995       1.3632092524752752E-4
0.13500000000000006       1.4357952131320874E-4
0.14                      1.5004745990579075E-4
0.14500000000000002       1.5556365447192322E-4
0.14999999999999997       1.600011936311981E-4
0.15499999999999997       1.6327817339736422E-4
0.16000000000000003       1.6536471945365188E-4
0.16499999999999998       1.662848841159929E-4
0.16999999999999998       1.661129193925747E-4
0.175                     1.649644453108518E-4
0.18                      1.629839819353207E-4
0.185                     1.6033091916253876E-4
0.19                      1.571660901934558E-4
0.19499999999999995       1.5364069934489252E-4
0.19999999999999996       1.498886089843828E-4
0.20500000000000002       1.4602217553922608E-4
0.21000000000000002       1.4213117430060754E-4
0.21500000000000002       1.3828399102052444E-4
0.22000000000000003       1.3453018360615434E-4
0.22500000000000003       1.309036435848479E-4
0.23000000000000004       1.2742580466986163E-4
0.23500000000000004       1.241085670309156E-4
0.24000000000000005       1.2095678266367139E-4
0.24499999999999994       1.1797026601423837E-4
0.24999999999999994       1.1514536163432474E-4
0.25500000000000006       1.1247613148362053E-4
0.25999999999999995       1.0995523259031818E-4
0.26499999999999996       1.0757455173552581E-4
0.26999999999999996       1.0532565450885614E-4
0.27499999999999997       1.0320009541922203E-4
0.2800000000000001        1.0119037546035387E-4
0.2850000000000001        9.929088267488133E-5
0.29                      9.74905622614453E-5
0.295                     9.578034369561988E-5
0.3                       9.415528322630937E-5
0.295                     9.18334617869771E-5
0.29                      8.997231259860862E-5
0.2850000000000001        8.83106629217508E-5
0.2800000000000001        8.671542363434841E-5
0.2750000000000001        8.518384827795615E-5
0.26999999999999996       8.370482218805932E-5
0.26499999999999996       8.22617331259257E-5
0.25999999999999995       8.084329787822987E-5
0.25500000000000006       7.944216752623982E-5
0.25000000000000006       7.805065289842612E-5
0.24499999999999994       7.666055625887563E-5
0.23999999999999994       7.526421525216137E-5
0.23499999999999993       7.38544754973154E-5
0.22999999999999993       7.242434627572489E-5
0.22500000000000003       7.096699866082949E-5
0.22000000000000003       6.947589465854164E-5
0.21500000000000002       6.794485987374957E-5
0.21000000000000002       6.636815929440462E-5
0.20500000000000002       6.474062422259747E-5
0.20000000000000012       6.30578057689527E-5
0.19499999999999995       6.13161337728548E-5
0.19                      5.951307932983924E-5
0.185                     5.764731531384534E-5
0.18                      5.571886153674588E-5
0.17500000000000004       5.3729201245173277E-5
0.16999999999999993       5.168135787913456E-5
0.16499999999999992       4.957992219129012E-5
0.15999999999999998       4.743102181760157E-5
0.15499999999999997       4.524222907263295E-5
0.14999999999999997       4.3022407240338E-5
0.14500000000000002       4.078150019890381E-5
0.14                      3.853027452180576E-5
0.13500000000000006       3.6280026833303766E-5
0.13000000000000006       3.404227170608089E-5
0.1250000000000001        3.182842649318581E-5
0.12                      2.9649509140530948E-5
0.11499999999999999       2.751586336107184E-5
0.10999999999999999       2.543692283372279E-5
0.10500000000000004       2.3421022689233178E-5
0.10000000000000003       2.1475262864397004E-5
0.09499999999999992       1.960542432595528E-5
0.09000000000000008       1.7815935996637254E-5
0.08499999999999996       1.6109887662030232E-5
0.07999999999999996       1.4489082315501088E-5
0.07500000000000001       1.2954120325444788E-5
0.07                      1.1504507420111481E-5
0.06500000000000006       1.0138778672226694E-5
0.06000000000000005       8.85463129285732E-6
0.05499999999999994       7.649059971314934E-6
0.0500000000000001        6.518489578219449E-6
0.044999999999999984      5.458901190206849E-6
0.04000000000000015       4.4659485037622375E-6
0.03500000000000003       3.5350627067569013E-6
0.029999999999999916      2.661544743357782E-6
0.025000000000000022      1.8406446358114726E-6
0.019999999999999907      1.0676280803857974E-6
0.015000000000000069      3.3783096885713595E-7
0.009999999999999953      -3.532972432614451E-7
0.0050000000000000044     -1.010160204350391E-6
0                         -1.6369901710109413E-6
-0.0050000000000000044    -2.237831128094382E-6
-0.009999999999999953     -2.8165283491028576E-6
-0.014999999999999958     -3.3767232552680203E-6
-0.020000000000000073     -3.921852562908613E-6
-0.02499999999999991      -4.4551507737231385E-6
-0.030000000000000027     -4.9796551999394245E-6
-0.034999999999999865     -5.498212844679275E-6
-0.03999999999999998      -6.013488341610307E-6
-0.045000000000000095     -6.527972593327138E-6
-0.04999999999999993      -7.04399110800444E-6
-0.05500000000000008      -7.563705800978922E-6
-0.06000000000000005      -8.089182706358775E-6
-0.06500000000000003      -8.622268468096068E-6
-0.07                     -9.164681025260942E-6
-0.07500000000000001      -9.718175109731266E-6
-0.07999999999999999      -1.0284209283671593E-5
-0.0850000000000001       -1.086409808176135E-5
-0.08999999999999994      -1.1459173462499938E-5
-0.09500000000000006      -1.207062405695233E-5
-0.0999999999999999       -1.2699497663224263E-5
-0.10500000000000001      -1.3346740849382564E-5
-0.11000000000000013      -1.4013215605526657E-5
-0.11499999999999999      -1.4699647579966265E-5
-0.1200000000000001       -1.5406616209693506E-5
-0.12499999999999994      -1.6134593701575476E-5
-0.13000000000000006      -1.688396295906001E-5
-0.13500000000000004      -1.7654959121025064E-5
-0.14000000000000004      -1.844763785002006E-5
-0.14500000000000002      -1.926189301328083E-5
-0.15                     -2.0097468137515512E-5
-0.15499999999999997      -2.0953943401600957E-5
-0.1600000000000001       -2.1830717265114706E-5
-0.16499999999999995      -2.2726990527156993E-5
-0.17000000000000007      -2.3641756267990665E-5
-0.1749999999999999       -2.4573789221327925E-5
-0.18000000000000002      -2.5521639642577113E-5
-0.18500000000000014      -2.6483627240372316E-5
-0.19                     -2.745783468490603E-5
-0.19500000000000012      -2.8442100138681865E-5
-0.19999999999999996      -2.9434012816876185E-5
-0.20500000000000007      -3.0430913888887535E-5
-0.21000000000000005      -3.142990114013827E-5
-0.21500000000000002      -3.242783524503394E-5
-0.22000000000000003      -3.3421348006713674E-5
-0.22499999999999998      -3.440685515672256E-5
-0.22999999999999998      -3.538057539201503E-5
-0.2350000000000001       -3.633855545820969E-5
-0.23999999999999994      -3.7276699623246354E-5
-0.24500000000000005      -3.81908026685028E-5
-0.2499999999999999       -3.9076586851956316E-5
-0.255                    -3.9929743977104956E-5
-0.2600000000000001       -4.07459829864527E-5
-0.26499999999999996      -4.15210820549128E-5
-0.2700000000000001       -4.2250943386341834E-5
-0.27499999999999997      -4.2931649120104937E-5
-0.2800000000000001       -4.3559517495212346E-5
-0.28500000000000003      -4.413115874012888E-5
-0.29000000000000004      -4.464352979402129E-5
-0.295                    -4.5093986335293866E-5
-0.3                      -4.5480330183015455E-5
