% Model:              Untitled.mph
% Version:            COMSOL 6.0.0.405
% Date:               Oct 7 2022, 12:06
% Dimension:          1
% Nodes:              241
% Expressions:        1
% Description:        Global
% -E_time (V)             Value
-0.3                      3.362222701295037E-8
-0.295                    6.26955727209576E-9
-0.29                     6.045897390017513E-9
-0.285                    6.5716249207194785E-9
-0.27999999999999997      7.533009032879691E-9
-0.27499999999999997      8.896515775069602E-9
-0.27                     1.0721620405229275E-8
-0.265                    1.2955438267531583E-8
-0.26                     1.5669168504713125E-8
-0.255                    1.8964016742337546E-8
-0.25                     2.2979669181058267E-8
-0.245                    2.7829076820778547E-8
-0.24                     3.3743392083017883E-8
-0.235                    4.0940547653381615E-8
-0.22999999999999998      4.968908423117624E-8
-0.22499999999999998      6.032133407063136E-8
-0.21999999999999997      7.324075806535227E-8
-0.215                    8.893741488600379E-8
-0.21                     1.0800664510303101E-7
-0.20500000000000002      1.3117143572857276E-7
-0.2                      1.5930962487061466E-7
-0.195                    1.9348689350822546E-7
-0.19                     2.349967242373151E-7
-0.185                    2.854087685903215E-7
-0.18                     3.466273429995435E-7
-0.175                    4.209621030462608E-7
-0.16999999999999998      5.112133280217101E-7
-0.16499999999999998      6.207746844134322E-7
-0.16                     7.537568272648346E-7
-0.15499999999999997      9.151357357650176E-7
-0.15                     1.1109302475886438E-6
-0.14500000000000002      1.3484138240380085E-6
-0.13999999999999999      1.636366090445157E-6
-0.13499999999999998      1.985370064544927E-6
-0.13                     2.4081610700586194E-6
-0.12500000000000003      2.92003292158511E-6
-0.12                     3.5393057468358246E-6
-0.11499999999999999      4.287857332117847E-6
-0.11000000000000001      5.191715504154488E-6
-0.10499999999999998      6.281701935511037E-6
-0.1                      7.594106755339111E-6
-0.095                    9.171357059318018E-6
-0.09                     1.1062619223532554E-5
-0.08500000000000002      1.3324243196178997E-5
-0.07999999999999999      1.6019915440214762E-5
-0.07500000000000001      1.9220335926862078E-5
-0.06999999999999998      2.3002176113833065E-5
-0.065                    2.744601636605724E-5
-0.06                     3.263291719954619E-5
-0.05499999999999999      3.8639273396935415E-5
-0.05000000000000002      4.5529669190983874E-5
-0.044999999999999984     5.3347641090538745E-5
-0.03999999999999998      6.210460634908292E-5
-0.034999999999999976     7.176775111569916E-5
-0.02999999999999997      8.224835899851688E-5
-0.025000000000000022     9.339277135127265E-5
-0.020000000000000018     1.0497866588053249E-4
-0.015000000000000013     1.1671930009904061E-4
-0.009999999999999953     1.2827750077815128E-4
-0.0050000000000000044    1.3928940974708073E-4
0                         1.4939561852546135E-4
0.0050000000000000044     1.5827504053401756E-4
0.009999999999999953      1.656755635241156E-4
0.015000000000000013      1.7143584553681922E-4
0.020000000000000018      1.7549459625521236E-4
0.024999999999999967      1.7788665393981165E-4
0.030000000000000027      1.7872807080238244E-4
0.03500000000000003       1.7819432979302314E-4
0.03999999999999998       1.7649632804418914E-4
0.044999999999999984      1.7385805700773438E-4
0.04999999999999993       1.7049852522212325E-4
0.05499999999999999       1.6661898677962906E-4
0.06                      1.6239535702826957E-4
0.06500000000000006       1.5797497459978755E-4
0.07                      1.5347657553213908E-4
0.07500000000000001       1.489923579596465E-4
0.07999999999999996       1.4459119704844723E-4
0.08499999999999996       1.4032231062593252E-4
0.09000000000000002       1.3621890808266951E-4
0.09499999999999997       1.3230154577795287E-4
0.09999999999999998       1.28581052418338E-4
0.10499999999999998       1.2506098183816063E-4
0.10999999999999999       1.2173960776803065E-4
0.11499999999999999       1.1861150579310948E-4
0.12                      1.1566878066599649E-4
0.12499999999999994       1.1290199926401993E-4
0.12999999999999995       1.1030088557459865E-4
0.13500000000000006       1.0785482731653566E-4
0.14                      1.0555323610301313E-4
0.14500000000000002       1.0338579552657562E-4
0.14999999999999997       1.013435228692142E-4
0.15499999999999997       9.941912842896702E-5
0.16000000000000003       9.760024137699095E-5
0.16499999999999998       9.587690463171055E-5
0.16999999999999998       9.424331587709771E-5
0.175                     9.269360964478156E-5
0.18                      9.12210393581387E-5
0.185                     8.981953987985472E-5
0.19                      8.848399863913167E-5
0.19499999999999995       8.720968563237531E-5
0.19999999999999996       8.599212873724036E-5
0.20500000000000002       8.482726311892447E-5
0.21000000000000002       8.371142743526844E-5
0.21500000000000002       8.264127264082872E-5
0.22000000000000003       8.161372427754616E-5
0.22500000000000003       8.06259750736796E-5
0.23000000000000004       7.967546262924034E-5
0.23500000000000004       7.875984039708368E-5
0.24000000000000005       7.787695630804717E-5
0.24499999999999994       7.702483606341861E-5
0.24999999999999994       7.620166640294492E-5
0.25500000000000006       7.540577919193111E-5
0.25999999999999995       7.463563761752085E-5
0.26499999999999996       7.388982402249344E-5
0.26999999999999996       7.31670287999835E-5
0.27499999999999997       7.246604034019048E-5
0.2800000000000001        7.178573605458975E-5
0.2850000000000001        7.112507433589013E-5
0.29                      7.048308731630373E-5
0.295                     6.985887435104977E-5
0.3                       6.925159616291751E-5
0.295                     6.865422189714441E-5
0.29                      6.807337736759546E-5
0.2850000000000001        6.75107149866456E-5
0.2800000000000001        6.696204067666585E-5
0.2750000000000001        6.642563586960198E-5
0.26999999999999996       6.590203777058814E-5
0.26499999999999996       6.539092421094512E-5
0.25999999999999995       6.489125130258824E-5
0.25500000000000006       6.440231490195562E-5
0.25000000000000006       6.392367030203898E-5
0.24499999999999994       6.345476493024972E-5
0.23999999999999994       6.29949585630455E-5
0.23499999999999993       6.254363109715003E-5
0.22999999999999993       6.210016071454858E-5
0.22500000000000003       6.16638739830899E-5
0.22000000000000003       6.12340359848457E-5
0.21500000000000002       6.080984578914531E-5
0.21000000000000002       6.039041522113265E-5
0.20500000000000002       5.9974741531800135E-5
0.20000000000000012       5.9561679774313E-5
0.19499999999999995       5.914991016073426E-5
0.19                      5.87378971453306E-5
0.185                     5.832384000228799E-5
0.18                      5.790561379878923E-5
0.17500000000000004       5.748069831833858E-5
0.16999999999999993       5.704609231302661E-5
0.16499999999999992       5.659821034573627E-5
0.15999999999999998       5.6132758924949866E-5
0.15499999999999997       5.5644588000733015E-5
0.14999999999999997       5.512751334698174E-5
0.14500000000000002       5.4574104817849255E-5
0.14                      5.3975434944379006E-5
0.13500000000000006       5.3320781955705256E-5
0.13000000000000006       5.259728121926668E-5
0.1250000000000001        5.178951949439276E-5
0.12                      5.08772246668948E-5
0.11499999999999999       4.984588437863965E-5
0.10999999999999999       4.8662194651562185E-5
0.10500000000000004       4.729624591598657E-5
0.10000000000000003       4.5712475932719456E-5
0.09499999999999992       4.386842273669351E-5
0.09000000000000008       4.171493626786975E-5
0.08499999999999996       3.9195701429877045E-5
0.07999999999999996       3.624704390269895E-5
0.07500000000000001       3.279824948643741E-5
0.07                      2.877258608861981E-5
0.06500000000000006       2.4089335930733445E-5
0.06000000000000005       1.866718712865468E-5
0.05499999999999994       1.2429337917021666E-5
0.0500000000000001        5.310601872572757E-6
0.044999999999999984      -2.733380685514763E-6
0.04000000000000015       -1.1715064513823934E-5
0.03500000000000003       -2.1602811826208923E-5
0.029999999999999916      -3.230906492630536E-5
0.025000000000000022      -4.36817623270178E-5
0.019999999999999907      -5.549957758683806E-5
0.015000000000000069      -6.747564871007553E-5
0.009999999999999953      -7.927164174660439E-5
0.0050000000000000044     -9.052253310034367E-5
0                         -1.0086705055002042E-4
-0.0050000000000000044    -1.0998119293357316E-4
-0.009999999999999953     -1.1760967413641321E-4
-0.014999999999999958     -1.235886410892417E-4
-0.020000000000000073     -1.2785534414841575E-4
-0.02499999999999991      -1.304442210605878E-4
-0.030000000000000027     -1.3147185376338806E-4
-0.034999999999999865     -1.3111496150535054E-4
-0.03999999999999998      -1.295860922773236E-4
-0.045000000000000095     -1.2711101927270315E-4
-0.04999999999999993      -1.2391043751265308E-4
-0.05500000000000008      -1.2018704241660226E-4
-0.06000000000000005      -1.1611787950767242E-4
-0.06500000000000003      -1.1185110773148835E-4
-0.07                     -1.0750600827547317E-4
-0.07500000000000001      -1.0317509507640819E-4
-0.07999999999999999      -9.892738127361608E-5
-0.0850000000000001       -9.48120976423289E-5
-0.08999999999999994      -9.086238667525323E-5
-0.09500000000000006      -8.709869028354811E-5
-0.0999999999999999       -8.353169698685134E-5
-0.10500000000000001      -8.01648108694967E-5
-0.11000000000000013      -7.69961588739581E-5
-0.11499999999999999      -7.402018103712325E-5
-0.1200000000000001       -7.122886159776074E-5
-0.12499999999999994      -6.861266263107303E-5
-0.13000000000000006      -6.616121849090787E-5
-0.13500000000000004      -6.386384171199235E-5
-0.14000000000000004      -6.17098822872873E-5
-0.14500000000000002      -5.9688974436124376E-5
-0.15                     -5.779119851316253E-5
-0.15499999999999997      -5.6007180136963046E-5
-0.1600000000000001       -5.432814370260341E-5
-0.16499999999999995      -5.27459333218402E-5
-0.17000000000000007      -5.1253011000923715E-5
-0.1749999999999999       -4.984243938544009E-5
-0.18000000000000002      -4.850785448234345E-5
-0.18500000000000014      -4.724396165571473E-5
-0.19                     -4.6045772137915255E-5
-0.19500000000000012      -4.4907351194238555E-5
-0.19999999999999996      -4.3823766807676746E-5
-0.20500000000000007      -4.279144659954193E-5
-0.21000000000000005      -4.180700375749333E-5
-0.21500000000000002      -4.086699176960144E-5
-0.22000000000000003      -3.996829513899771E-5
-0.22499999999999998      -3.910818172145861E-5
-0.22999999999999998      -3.828413723249329E-5
-0.2350000000000001       -3.749382014655984E-5
-0.23999999999999994      -3.6735089982068746E-5
-0.24500000000000005      -3.600599623267141E-5
-0.2499999999999999       -3.5304745716106486E-5
-0.255                    -3.462968529570947E-5
-0.2600000000000001       -3.397929349581773E-5
-0.26499999999999996      -3.335216893187639E-5
-0.2700000000000001       -3.2747017636641405E-5
-0.27499999999999997      -3.216264294673513E-5
-0.2800000000000001       -3.159793706949365E-5
-0.28500000000000003      -3.105187305113221E-5
-0.29000000000000004      -3.052349734319519E-5
-0.295                    -3.0011923273180678E-5
-0.3                      -2.9516325255354632E-5
