% Model:              Untitled.mph
% Version:            COMSOL 6.0.0.405
% Date:               Sep 28 2022, 06:41
% Dimension:          1
% Nodes:              241
% Expressions:        1
% Description:        Global
% -E_time (V)             Value
-0.3                      7.396741529262963E-9
-0.295                    3.1378934380356597E-9
-0.29                     6.535727034916942E-9
-0.285                    6.4196313667535115E-9
-0.27999999999999997      7.3568721035934354E-9
-0.27499999999999997      8.707342785542483E-9
-0.27                     1.0553317849915034E-8
-0.265                    1.2698505717938501E-8
-0.26                     1.5251973023935194E-8
-0.255                    1.837857758706418E-8
-0.25                     2.2170803888061695E-8
-0.245                    2.6736721394435043E-8
-0.24                     3.223717484543104E-8
-0.235                    3.886066572182629E-8
-0.22999999999999998      4.681884352853357E-8
-0.22499999999999998      5.6386392917419505E-8
-0.21999999999999997      6.776295640895753E-8
-0.215                    8.13785744972326E-8
-0.21                     9.762345882218634E-8
-0.20500000000000002      1.1694367723021283E-7
-0.2                      1.3985905341781127E-7
-0.195                    1.6695904375368388E-7
-0.19                     1.9890588943033804E-7
-0.185                    2.3643715923831098E-7
-0.18                     2.8036601222513416E-7
-0.175                    3.3157922372954174E-7
-0.16999999999999998      3.910325856960709E-7
-0.16499999999999998      4.5974338320122157E-7
-0.16                     5.387798492590273E-7
-0.15499999999999997      6.29247710326352E-7
-0.15                     7.322741779498481E-7
-0.14500000000000002      8.489899966399177E-7
-0.13999999999999999      9.805103933533532E-7
-0.13499999999999998      1.1279159589560909E-6
-0.13                     1.2922345983728832E-6
-0.12500000000000003      1.474425693486174E-6
-0.12                     1.6753675232186716E-6
-0.11499999999999999      1.895848785084652E-6
-0.11000000000000001      2.136564782142946E-6
-0.10499999999999998      2.398118509812517E-6
-0.1                      2.6810265350034204E-6
-0.095                    2.985729242016282E-6
-0.09                     3.312604756443702E-6
-0.08500000000000002      3.661985671291059E-6
-0.07999999999999999      4.034177598663713E-6
-0.07500000000000001      4.429478554471825E-6
-0.06999999999999998      4.848198242267922E-6
-0.065                    5.2906764186178595E-6
-0.06                     5.75729967663031E-6
-0.05499999999999999      6.248516156364614E-6
-0.05000000000000002      6.764847863211067E-6
-0.044999999999999984     7.306900434077293E-6
-0.03999999999999998      7.875370326740561E-6
-0.034999999999999976     8.47104951470604E-6
-0.02999999999999997      9.094827846856033E-6
-0.025000000000000022     9.747693279439482E-6
-0.020000000000000018     1.0430730210701694E-5
-0.015000000000000013     1.1145116150479802E-5
-0.009999999999999953     1.1892116942496836E-5
-0.0050000000000000044    1.2673080731314792E-5
0                         1.3489430832933019E-5
0.0050000000000000044     1.4342657631336832E-5
0.009999999999999953      1.5234168799879216E-5
0.015000000000000013      1.616597225928848E-5
0.020000000000000018      1.7139214039984602E-5
0.024999999999999967      1.8155966674480932E-5
0.030000000000000027      1.921750079753522E-5
0.03500000000000003       2.0325731582306344E-5
0.03999999999999998       2.1482391575774998E-5
0.044999999999999984      2.2689023576248175E-5
0.04999999999999993       2.3947180282679935E-5
0.05499999999999999       2.525840462148956E-5
0.06                      2.662414438787794E-5
0.06500000000000006       2.8045728938528394E-5
0.07                      2.952436560422215E-5
0.07500000000000001       3.106111694501608E-5
0.07999999999999996       3.26568702001598E-5
0.08499999999999996       3.431231037697777E-5
0.09000000000000002       3.602789380930293E-5
0.09499999999999997       3.7803818903543714E-5
0.09999999999999998       3.9639995161194754E-5
0.10499999999999998       4.1536011703046244E-5
0.10999999999999999       4.349110530987405E-5
0.11499999999999999       4.550412803760155E-5
0.12                      4.75735149200494E-5
0.12499999999999994       4.9697252362876854E-5
0.12999999999999995       5.187284780403603E-5
0.13500000000000006       5.409730129819617E-5
0.14                      5.6367079799387974E-5
0.14500000000000002       5.8678094995412486E-5
0.14999999999999997       6.102568560750103E-5
0.15499999999999997       6.340460512537912E-5
0.16000000000000003       6.580901599015745E-5
0.16499999999999998       6.823249125344253E-5
0.16999999999999998       7.0668024727358E-5
0.175                     7.310805059289694E-5
0.18                      7.554447334713683E-5
0.185                     7.79687088379734E-5
0.19                      8.037173695449182E-5
0.19499999999999995       8.274416630998043E-5
0.19999999999999996       8.507631097248612E-5
0.20500000000000002       8.73582789670915E-5
0.21000000000000002       8.958007190031768E-5
0.21500000000000002       9.173169464889076E-5
0.22000000000000003       9.380327362514977E-5
0.22500000000000003       9.578518169578309E-5
0.23000000000000004       9.766816740874517E-5
0.23500000000000004       9.944348579742516E-5
0.24000000000000005       1.0110302770547136E-4
0.24499999999999994       1.026394443344963E-4
0.24999999999999994       1.0404626358377255E-4
0.25500000000000006       1.0531799474592017E-4
0.25999999999999995       1.0645021826099043E-4
0.26499999999999996       1.0743965752144361E-4
0.26999999999999996       1.0828423016182979E-4
0.27499999999999997       1.0898307685038807E-4
0.2800000000000001        1.0953656630387896E-4
0.2850000000000001        1.0994627604273821E-4
0.29                      1.1021494925269992E-4
0.295                     1.1034642897661906E-4
0.3                       1.1034557167903639E-4
0.295                     1.0311733954031296E-4
0.29                      9.66466959600296E-5
0.2850000000000001        9.147648111987693E-5
0.2800000000000001        8.695962070179174E-5
0.2750000000000001        8.291074684162194E-5
0.26999999999999996       7.923290704064233E-5
0.26499999999999996       7.584832953437342E-5
0.25999999999999995       7.270355809273138E-5
0.25500000000000006       6.976029325660419E-5
0.25000000000000006       6.698943627029192E-5
0.24499999999999994       6.43704158082653E-5
0.23999999999999994       6.188255809521352E-5
0.23499999999999993       5.951120966273533E-5
0.22999999999999993       5.7245297495677607E-5
0.22500000000000003       5.507516166944913E-5
0.22000000000000003       5.299251933182791E-5
0.21500000000000002       5.099054959559668E-5
0.21000000000000002       4.906351533123299E-5
0.20500000000000002       4.720644615680622E-5
0.20000000000000012       4.541502588285205E-5
0.19499999999999995       4.3685510853141127E-5
0.19                      4.2014622186768945E-5
0.185                     4.039945439299294E-5
0.18                      3.8837411929774024E-5
0.17500000000000004       3.7326157061895094E-5
0.16999999999999993       3.586356224779245E-5
0.16499999999999992       3.444766938796368E-5
0.15999999999999998       3.307665593226595E-5
0.15499999999999997       3.174880555756289E-5
0.14999999999999997       3.0462482129098957E-5
0.14500000000000002       2.9216106573817807E-5
0.14                      2.80081361739049E-5
0.13500000000000006       2.683704565150996E-5
0.13000000000000006       2.570130955416996E-5
0.1250000000000001        2.4599385568237903E-5
0.12                      2.352969840419355E-5
0.11499999999999999       2.2490623905289526E-5
0.10999999999999999       2.1480473057390248E-5
0.10500000000000004       2.0497475597327963E-5
0.10000000000000003       1.9539762924827812E-5
0.09499999999999992       1.8605350026910826E-5
0.09000000000000008       1.7692116129095173E-5
0.08499999999999996       1.679778379250163E-5
0.07999999999999996       1.591989618160311E-5
0.07500000000000001       1.5055792236829144E-5
0.07                      1.4202579504533408E-5
0.06500000000000006       1.3357104401154511E-5
0.06000000000000005       1.2515919729882733E-5
0.05499999999999994       1.167524933039543E-5
0.0500000000000001        1.0830949829596507E-5
0.044999999999999984      9.978469586395862E-6
0.04000000000000015       9.112805095897808E-6
0.03500000000000003       8.228455353584254E-6
0.029999999999999916      7.3193749923344015E-6
0.025000000000000022      6.3789274154075635E-6
0.019999999999999907      5.399839689704654E-6
0.015000000000000069      4.374161644537052E-6
0.009999999999999953      3.2932324822828615E-6
0.0050000000000000044     2.1476592906956797E-6
0                         9.273131526696412E-7
-0.0050000000000000044    -3.7864989765452567E-7
-0.009999999999999953     -1.781733991344266E-6
-0.014999999999999958     -3.29400349217903E-6
-0.020000000000000073     -4.927924682745018E-6
-0.02499999999999991      -6.696133392803655E-6
-0.030000000000000027     -8.611108725853413E-6
-0.034999999999999865     -1.068475360519387E-5
-0.03999999999999998      -1.2927743175453604E-5
-0.045000000000000095     -1.5349188356887272E-5
-0.04999999999999993      -1.7955206543525996E-5
-0.05500000000000008      -2.0748124748389063E-5
-0.06000000000000005      -2.3725540538767305E-5
-0.06500000000000003      -2.6878857287366898E-5
-0.07                     -3.0192013137191457E-5
-0.07500000000000001      -3.364015353167546E-5
-0.07999999999999999      -3.718858237361498E-5
-0.0850000000000001       -4.079209940675991E-5
-0.08999999999999994      -4.439492185826631E-5
-0.09500000000000006      -4.7924861697122684E-5
-0.0999999999999999       -5.132092886515599E-5
-0.10500000000000001      -5.450004850134039E-5
-0.11000000000000013      -5.738134996054802E-5
-0.11499999999999999      -5.988917330302662E-5
-0.1200000000000001       -6.195718353650388E-5
-0.12499999999999994      -6.35339615347395E-5
-0.13000000000000006      -6.458771518214321E-5
-0.13500000000000004      -6.510936455745058E-5
-0.14000000000000004      -6.511346166409726E-5
-0.14500000000000002      -6.463666402021565E-5
-0.15                     -6.373392478109786E-5
-0.15499999999999997      -6.247299153149056E-5
-0.1600000000000001       -6.0928103768094645E-5
-0.16499999999999995      -5.9173864166842005E-5
-0.17000000000000007      -5.7280112020339694E-5
-0.1749999999999999       -5.53083094847324E-5
-0.18000000000000002      -5.330957658952162E-5
-0.18500000000000014      -5.132419415846995E-5
-0.19                     -4.93822039391651E-5
-0.19500000000000012      -4.750468142445653E-5
-0.19999999999999996      -4.5705304870257644E-5
-0.20500000000000007      -4.3991944079362124E-5
-0.21000000000000005      -4.236810106548904E-5
-0.21500000000000002      -4.0834124679202085E-5
-0.22000000000000003      -3.938818263630599E-5
-0.22499999999999998      -3.802700903958236E-5
-0.22999999999999998      -3.6746460767432804E-5
-0.2350000000000001       -3.554191974734456E-5
-0.23999999999999994      -3.4408575776551206E-5
-0.24500000000000005      -3.334161954902719E-5
-0.2499999999999999       -3.233636978963139E-5
-0.255                    -3.138835296752537E-5
-0.2600000000000001       -3.0493349472313163E-5
-0.26499999999999996      -2.9647416484040976E-5
-0.2700000000000001       -2.884689496148316E-5
-0.27499999999999997      -2.8088713183898442E-5
-0.2800000000000001       -2.7369848567726707E-5
-0.28500000000000003      -2.6686421396681934E-5
-0.29000000000000004      -2.6036656812653022E-5
-0.295                    -2.541824625834502E-5
-0.3                      -2.482845618779976E-5
