% Model:              Untitled.mph
% Version:            COMSOL 6.0.0.405
% Date:               Sep 29 2022, 02:26
% Dimension:          1
% Nodes:              241
% Expressions:        1
% Description:        Global
% -E_time (V)             Value
-0.3                      2.8772744518017964E-8
-0.295                    6.038287839372208E-9
-0.29                     6.111992439871458E-9
-0.285                    6.5321140815255275E-9
-0.27999999999999997      7.511259975837898E-9
-0.27499999999999997      8.850234639952023E-9
-0.27                     1.0745253649542662E-8
-0.265                    1.2982578190830934E-8
-0.26                     1.5646329735265304E-8
-0.255                    1.8919603570785952E-8
-0.25                     2.29190993782871E-8
-0.245                    2.7772005750116884E-8
-0.24                     3.366643910833356E-8
-0.235                    4.0831820459318234E-8
-0.22999999999999998      4.956159327570616E-8
-0.22499999999999998      6.007235922627034E-8
-0.21999999999999997      7.286297084577197E-8
-0.215                    8.839812043132462E-8
-0.21                     1.0724530357087448E-7
-0.20500000000000002      1.3010417420176013E-7
-0.2                      1.57819544046447E-7
-0.195                    1.9141121086200956E-7
-0.19                     2.3210954323607956E-7
-0.185                    2.813970417032732E-7
-0.18                     3.410576827575764E-7
-0.175                    4.1323510334142155E-7
-0.16999999999999998      5.005008013886743E-7
-0.16499999999999998      6.059336038793945E-7
-0.16                     7.332115998866135E-7
-0.15499999999999997      8.867175806215287E-7
-0.15                     1.0716587198458974E-6
-0.14500000000000002      1.2942007039260577E-6
-0.13999999999999999      1.5616157101351418E-6
-0.13499999999999998      1.8824424521314464E-6
-0.13                     2.2666548746753477E-6
-0.12500000000000003      2.725833901773194E-6
-0.12                     3.273333860671992E-6
-0.11499999999999999      3.924431801471047E-6
-0.11000000000000001      4.696443971545004E-6
-0.10499999999999998      5.60878937051309E-6
-0.1                      6.682975958032996E-6
-0.095                    7.9424812743953E-6
-0.09                     9.412496751475321E-6
-0.08500000000000002      1.1119504837211738E-5
-0.07999999999999999      1.3090661352797428E-5
-0.07500000000000001      1.5352963335236303E-5
-0.06999999999999998      1.793219579569366E-5
-0.065                    2.0851669566824048E-5
-0.06                     2.413078604341708E-5
-0.05499999999999999      2.7783491336288477E-5
-0.05000000000000002      3.1816709188211976E-5
-0.044999999999999984     3.6228865012448734E-5
-0.03999999999999998      4.1008628275025854E-5
-0.034999999999999976     4.613400318138535E-5
-0.02999999999999997      5.1571885538835075E-5
-0.025000000000000022     5.72781760914809E-5
-0.020000000000000018     6.319849939325566E-5
-0.015000000000000013     6.926952666600568E-5
-0.009999999999999953     7.542084718936065E-5
-0.0050000000000000044    8.157728250397991E-5
0                         8.76614975933787E-5
0.0050000000000000044     9.359673820503226E-5
0.009999999999999953      9.930951621901543E-5
0.015000000000000013      1.0473207547862435E-4
0.020000000000000018      1.09804496351863E-4
0.024999999999999967      1.1447633428407071E-4
0.030000000000000027      1.187077305833533E-4
0.03500000000000003       1.2246997743362405E-4
0.03999999999999998       1.2574555910623535E-4
0.044999999999999984      1.285277241593827E-4
0.04999999999999993       1.308196670906803E-4
0.05499999999999999       1.326334118089148E-4
0.06                      1.3398849393391016E-4
0.06500000000000006       1.3491053566458446E-4
0.07                      1.3542979760800154E-4
0.07500000000000001       1.3557977854127025E-4
0.07999999999999996       1.353926970439084E-4
0.08499999999999996       1.3490850729108478E-4
0.09000000000000002       1.3416412484162547E-4
0.09499999999999997       1.3319378692073326E-4
0.09999999999999998       1.3203063522167669E-4
0.10499999999999998       1.3070603883587776E-4
0.10999999999999999       1.2924873870270712E-4
0.11499999999999999       1.27684778386631E-4
0.12                      1.2603761152232669E-4
0.12499999999999994       1.2432808643839086E-4
0.12999999999999995       1.2257447506752606E-4
0.13500000000000006       1.2079261766807122E-4
0.14                      1.1899611116859035E-4
0.14500000000000002       1.1719649869630247E-4
0.14999999999999997       1.1540346530317009E-4
0.15499999999999997       1.1362503993493293E-4
0.16000000000000003       1.1186779240808222E-4
0.16499999999999998       1.1013701821059001E-4
0.16999999999999998       1.0843690960544795E-4
0.175                     1.0677071217276549E-4
0.18                      1.0514086569425992E-4
0.185                     1.0354912921103453E-4
0.19                      1.0199669098021493E-4
0.19499999999999995       1.0048426434666028E-4
0.19999999999999996       9.901217064072664E-5
0.20500000000000002       9.758041033000707E-5
0.21000000000000002       9.618872370827531E-5
0.21500000000000002       9.483664236601606E-5
0.22000000000000003       9.352353260697798E-5
0.22500000000000003       9.224863188543943E-5
0.23000000000000004       9.101107923969884E-5
0.23500000000000004       8.980994059143554E-5
0.24000000000000005       8.864422967643774E-5
0.24499999999999994       8.751292527486363E-5
0.24999999999999994       8.641498531963201E-5
0.25500000000000006       8.534935838035795E-5
0.25999999999999995       8.43149929479367E-5
0.26499999999999996       8.331084488143311E-5
0.26999999999999996       8.23358833237315E-5
0.27499999999999997       8.138909534470182E-5
0.2800000000000001        8.046948952976752E-5
0.2850000000000001        7.9576098696871E-5
0.29                      7.870798189522576E-5
0.295                     7.786422581419361E-5
0.3                       7.704394570948947E-5
0.295                     7.531200528708648E-5
0.29                      7.402125989708073E-5
0.2850000000000001        7.294212062916338E-5
0.2800000000000001        7.191881436854112E-5
0.2750000000000001        7.094692364528337E-5
0.26999999999999996       7.002002196890233E-5
0.26499999999999996       6.912648469674384E-5
0.25999999999999995       6.825918458969253E-5
0.25500000000000006       6.741546692116852E-5
0.25000000000000006       6.659275364952114E-5
0.24499999999999994       6.578783807319599E-5
0.23999999999999994       6.499799444782818E-5
0.23499999999999993       6.422111429099927E-5
0.22999999999999993       6.345529039606949E-5
0.22500000000000003       6.269868479534192E-5
0.22000000000000003       6.194957649130734E-5
0.21500000000000002       6.120634302384092E-5
0.21000000000000002       6.0467400776271676E-5
0.20500000000000002       5.9731170933264194E-5
0.20000000000000012       5.899606003009529E-5
0.19499999999999995       5.826043355165488E-5
0.19                      5.752258471020378E-5
0.185                     5.678070343600441E-5
0.18                      5.603284354759231E-5
0.17500000000000004       5.5276885354482704E-5
0.16999999999999993       5.451049309794804E-5
0.16499999999999992       5.3731066780091525E-5
0.15999999999999998       5.2935687205634636E-5
0.15499999999999997       5.212105294397842E-5
0.14999999999999997       5.128340805787275E-5
0.14500000000000002       5.0418459404443094E-5
0.14                      4.9521282222006706E-5
0.13500000000000006       4.858621272425453E-5
0.13000000000000006       4.760672651942293E-5
0.1250000000000001        4.657530184659369E-5
0.12                      4.548326692717405E-5
0.11499999999999999       4.432063123393819E-5
0.10999999999999999       4.3075901249922494E-5
0.10500000000000004       4.173588241118916E-5
0.10000000000000003       4.028547051419363E-5
0.09499999999999992       3.870743805762015E-5
0.09000000000000008       3.69802678620483E-5
0.08499999999999996       3.508722834780745E-5
0.07999999999999996       3.3000259818843234E-5
0.07500000000000001       3.069132440154775E-5
0.07                      2.813029747960967E-5
0.06500000000000006       2.528418414611593E-5
0.06000000000000005       2.2117540526851602E-5
0.05499999999999994       1.8593044802886254E-5
0.0500000000000001        1.4672341394559908E-5
0.044999999999999984      1.0317284411821634E-5
0.04000000000000015       5.491656618409084E-6
0.03500000000000003       1.6343941169891335E-7
0.029999999999999916      -5.692310455345206E-6
0.025000000000000022      -1.2089964305010033E-5
0.019999999999999907      -1.9029255001577776E-5
0.015000000000000069      -2.6490823474551984E-5
0.009999999999999953      -3.443190264366182E-5
0.0050000000000000044     -4.278176893410611E-5
0                         -5.144777427512853E-5
-0.0050000000000000044    -6.026882821606812E-5
-0.009999999999999953     -6.91045792046275E-5
-0.014999999999999958     -7.775658731348949E-5
-0.020000000000000073     -8.601212144691722E-5
-0.02499999999999991      -9.365414234558226E-5
-0.030000000000000027     -1.0047395598548556E-4
-0.034999999999999865     -1.0628800762927897E-4
-0.03999999999999998      -1.1095389310386082E-4
-0.045000000000000095     -1.1438314378422051E-4
-0.04999999999999993      -1.1654866294154702E-4
-0.05500000000000008      -1.1748536691946862E-4
-0.06000000000000005      -1.172838803442098E-4
-0.06500000000000003      -1.1607850912809103E-4
-0.07                     -1.1403175272991287E-4
-0.07500000000000001      -1.1131805824058952E-4
-0.07999999999999999      -1.0810927849978209E-4
-0.0850000000000001       -1.045635123576642E-4
-0.08999999999999994      -1.0081800277667034E-4
-0.09500000000000006      -9.698588700846988E-5
-0.0999999999999999       -9.315602786927461E-5
-0.10500000000000001      -8.939493360164488E-5
-0.11000000000000013      -8.574982090884548E-5
-0.11499999999999999      -8.225207877359394E-5
-0.1200000000000001       -7.892064038453545E-5
-0.12499999999999994      -7.576499034265283E-5
-0.13000000000000006      -7.278769280991907E-5
-0.13500000000000004      -6.998642578548797E-5
-0.14000000000000004      -6.73555623048461E-5
-0.14500000000000002      -6.488736511310676E-5
-0.15                     -6.25728675554401E-5
-0.15499999999999997      -6.0402508160334316E-5
-0.1600000000000001       -5.836657623946467E-5
-0.16499999999999995      -5.645551512023464E-5
-0.17000000000000007      -5.4660120130593375E-5
-0.1749999999999999       -5.297166030580452E-5
-0.18000000000000002      -5.138194582713564E-5
-0.18500000000000014      -4.9883357515159936E-5
-0.19                     -4.8468850337114244E-5
-0.19500000000000012      -4.713193964634676E-5
-0.19999999999999996      -4.5867217161349964E-5
-0.20500000000000007      -4.466972132992495E-5
-0.21000000000000005      -4.35332189085617E-5
-0.21500000000000002      -4.245254672120292E-5
-0.22000000000000003      -4.142411010420619E-5
-0.22499999999999998      -4.04444904740784E-5
-0.22999999999999998      -3.9510133519215405E-5
-0.2350000000000001       -3.8617821668028694E-5
-0.23999999999999994      -3.776475293829311E-5
-0.24500000000000005      -3.694834831345118E-5
-0.2499999999999999       -3.616619774701047E-5
-0.255                    -3.541609737365333E-5
-0.2600000000000001       -3.469604111986151E-5
-0.26499999999999996      -3.40041847835307E-5
-0.2700000000000001       -3.333882748471076E-5
-0.27499999999999997      -3.269840389955203E-5
-0.2800000000000001       -3.208147267648435E-5
-0.28500000000000003      -3.148670321152385E-5
-0.29000000000000004      -3.091286525765859E-5
-0.295                    -3.0358820423326707E-5
-0.3                      -2.98235139924278E-5
