% Model:              Untitled.mph
% Version:            COMSOL 6.0.0.405
% Date:               Sep 28 2022, 02:05
% Dimension:          1
% Nodes:              241
% Expressions:        1
% Description:        Global
% -E_time (V)             Value
-0.3                      1.680887438252865E-9
-0.295                    4.934717868363174E-9
-0.29                     5.9255916778049435E-9
-0.285                    6.18240085053616E-9
-0.27999999999999997      7.00528813273646E-9
-0.27499999999999997      8.164541905604647E-9
-0.27                     9.75035250740138E-9
-0.265                    1.1602477109002457E-8
-0.26                     1.3769435040874965E-8
-0.255                    1.6360579481003317E-8
-0.25                     1.9435427760786103E-8
-0.245                    2.3049075287234382E-8
-0.24                     2.7281878438256485E-8
-0.235                    3.222418419489441E-8
-0.22999999999999998      3.7967405669537245E-8
-0.22499999999999998      4.460837923703344E-8
-0.21999999999999997      5.225101516650876E-8
-0.215                    6.100344890500277E-8
-0.21                     7.098674452104476E-8
-0.20500000000000002      8.227419889511533E-8
-0.2                      9.500456058690098E-8
-0.195                    1.0928782434439355E-7
-0.19                     1.2522458195585212E-7
-0.185                    1.429116506938537E-7
-0.18                     1.6243952439645249E-7
-0.175                    1.8389131984622187E-7
-0.16999999999999998      2.0734253824106076E-7
-0.16499999999999998      2.328612524868066E-7
-0.16                     2.6050876810137245E-7
-0.15499999999999997      2.903407194763811E-7
-0.15                     3.2240852835647905E-7
-0.14500000000000002      3.567611422534404E-7
-0.13999999999999999      3.9344696292502754E-7
-0.13499999999999998      4.325158742246477E-7
-0.13                     4.7402128478195483E-7
-0.12500000000000003      5.180221123085476E-7
-0.12                     5.645846510480816E-7
-0.11499999999999999      6.13784280208644E-7
-0.11000000000000001      6.657069875124742E-7
-0.10499999999999998      7.20450696994231E-7
-0.1                      7.781264030352444E-7
-0.095                    8.388591228169802E-7
-0.09                     9.027886868226068E-7
-0.08500000000000002      9.700703918160964E-7
-0.07999999999999999      1.0408755431960697E-6
-0.07500000000000001      1.1153919141818216E-6
-0.06999999999999998      1.193824148328629E-6
-0.065                    1.2763941298839612E-6
-0.06                     1.3633413438345389E-6
-0.05499999999999999      1.4549232444747159E-6
-0.05000000000000002      1.551415648210154E-6
-0.044999999999999984     1.653113163271578E-6
-0.03999999999999998      1.76032966618264E-6
-0.034999999999999976     1.8733988322788523E-6
-0.02999999999999997      1.9926747253328735E-6
-0.025000000000000022     2.1185324494175872E-6
-0.020000000000000018     2.2513688645108408E-6
-0.015000000000000013     2.391603365984699E-6
-0.009999999999999953     2.539678726984441E-6
-0.0050000000000000044    2.696062001751636E-6
0                         2.8612454871314915E-6
0.0050000000000000044     3.0357477387890164E-6
0.009999999999999953      3.2201146380039754E-6
0.015000000000000013      3.4149205042834324E-6
0.020000000000000018      3.6207692483911585E-6
0.024999999999999967      3.83829555971658E-6
0.030000000000000027      4.068166121170252E-6
0.03500000000000003       4.3110808439759185E-6
0.03999999999999998       4.56777411380394E-6
0.044999999999999984      4.83901603864676E-6
0.04999999999999993       5.1256136876527514E-6
0.05499999999999999       5.428412308797723E-6
0.06                      5.7482965117668946E-6
0.06500000000000006       6.0861914007326534E-6
0.07                      6.443063639829822E-6
0.07500000000000001       6.819922432040337E-6
0.07999999999999996       7.217820389893407E-6
0.08499999999999996       7.637854273852697E-6
0.09000000000000002       8.081061790453746E-6
0.09499999999999997       8.548922350862576E-6
0.09999999999999998       9.0423232517147E-6
0.10499999999999998       9.562840274932021E-6
0.10999999999999999       1.0111495054669686E-5
0.11499999999999999       1.0689981404857523E-5
0.12                      1.1299365311566955E-5
0.12499999999999994       1.1941446178329966E-5
0.12999999999999995       1.261735487950988E-5
0.13500000000000006       1.332881588781166E-5
0.14                      1.407745582237005E-5
0.14500000000000002       1.486479316237235E-5
0.14999999999999997       1.5692413324229885E-5
0.15499999999999997       1.6561965938836857E-5
0.16000000000000003       1.747510403359708E-5
0.16499999999999998       1.8433473204940457E-5
0.16999999999999998       1.9438718137276817E-5
0.175                     2.049247372841693E-5
0.18                      2.1596349458206148E-5
0.185                     2.2751916508075826E-5
0.19                      2.3960695072433344E-5
0.19499999999999995       2.5224138938462248E-5
0.19999999999999996       2.6543617975947934E-5
0.20500000000000002       2.7920399326598576E-5
0.21000000000000002       2.935562704912241E-5
0.21500000000000002       3.085029995297439E-5
0.22000000000000003       3.2405247690537276E-5
0.22500000000000003       3.4021105222361035E-5
0.23000000000000004       3.5698285714442945E-5
0.23500000000000004       3.743695196533456E-5
0.24000000000000005       3.923698653782031E-5
0.24499999999999994       4.109796082714239E-5
0.24999999999999994       4.301910335208011E-5
0.25500000000000006       4.4999267623609425E-5
0.25999999999999995       4.703690002273895E-5
0.26499999999999996       4.9130008198242424E-5
0.26999999999999996       5.127613057654489E-5
0.27499999999999997       5.34723076595661E-5
0.2800000000000001        5.571505586899443E-5
0.2850000000000001        5.8000344773688054E-5
0.29                      6.032357860724515E-5
0.295                     6.267958304102864E-5
0.3                       6.50625982193063E-5
0.295                     6.164305148645612E-5
0.29                      5.7838561507459945E-5
0.2850000000000001        5.44866796882178E-5
0.2800000000000001        5.139056889520523E-5
0.2750000000000001        4.8517338665683886E-5
0.26999999999999996       4.584936417432547E-5
0.26499999999999996       4.336195698864855E-5
0.25999999999999995       4.1035416711348224E-5
0.25500000000000006       3.8853986749233784E-5
0.25000000000000006       3.6804378826015555E-5
0.24499999999999994       3.487526878832074E-5
0.23999999999999994       3.305690652653264E-5
0.23499999999999993       3.1341573522810396E-5
0.22999999999999993       2.9720638613777057E-5
0.22500000000000003       2.818748691920132E-5
0.22000000000000003       2.6736614275031316E-5
0.21500000000000002       2.536275659047022E-5
0.21000000000000002       2.40610169112559E-5
0.20500000000000002       2.2827022220475768E-5
0.20000000000000012       2.1656810398284446E-5
0.19499999999999995       2.054671642891395E-5
0.19                      1.94933475389234E-5
0.185                     1.8493568620632683E-5
0.18                      1.754446927413395E-5
0.17500000000000004       1.6643333868567483E-5
0.16999999999999993       1.5787622091275723E-5
0.16499999999999992       1.497495284062551E-5
0.15999999999999998       1.4203088502301393E-5
0.15499999999999997       1.346992111489622E-5
0.14999999999999997       1.2773460817637903E-5
0.14500000000000002       1.2111825734781112E-5
0.14                      1.1483232848366146E-5
0.13500000000000006       1.088598983450675E-5
0.13000000000000006       1.031848776474419E-5
0.1250000000000001        9.779194484180016E-6
0.12                      9.266648529287158E-6
0.11499999999999999       8.779453499042137E-6
0.10999999999999999       8.316272795584858E-6
0.10500000000000004       7.875824651764195E-6
0.10000000000000003       7.456877373455937E-6
0.09499999999999992       7.058244733922276E-6
0.09000000000000008       6.678781461187747E-6
0.08499999999999996       6.317378761775896E-6
0.07999999999999996       5.972959827366151E-6
0.07500000000000001       5.644475270622964E-6
0.07                      5.330898437244867E-6
0.06500000000000006       5.031220540558101E-6
0.06000000000000005       4.744445563711888E-6
0.05499999999999994       4.469584871266198E-6
0.0500000000000001        4.2056514689612875E-6
0.044999999999999984      3.951653849660531E-6
0.04000000000000015       3.7065893576166337E-6
0.03500000000000003       3.469437000162412E-6
0.029999999999999916      3.239149633217873E-6
0.025000000000000022      3.0146454442116003E-6
0.019999999999999907      2.7947986550660802E-6
0.015000000000000069      2.578429367478915E-6
0.009999999999999953      2.3642924766064614E-6
0.0050000000000000044     2.151065586676886E-6
0                         1.937335875137472E-6
-0.0050000000000000044    1.7215858723947506E-6
-0.009999999999999953     1.502178154970905E-6
-0.014999999999999958     1.2773389954244983E-6
-0.020000000000000073     1.0451410738775987E-6
-0.02499999999999991      8.034854407882538E-7
-0.030000000000000027     5.500830374124737E-7
-0.034999999999999865     2.824362312208845E-7
-0.03999999999999998      -2.1789792109295478E-9
-0.045000000000000095     -3.067291831881301E-7
-0.04999999999999993      -6.344369750367665E-7
-0.05500000000000008      -9.88789941919918E-7
-0.06000000000000005      -1.3735431131811116E-6
-0.06500000000000003      -1.7927121698511074E-6
-0.07                     -2.2505540179262018E-6
-0.07500000000000001      -2.7515300170943126E-6
-0.07999999999999999      -3.300252630804234E-6
-0.0850000000000001       -3.9013830050745E-6
-0.08999999999999994      -4.559574431575692E-6
-0.09500000000000006      -5.279200448622169E-6
-0.0999999999999999       -6.0642475775546384E-6
-0.10500000000000001      -6.918016047321253E-6
-0.11000000000000013      -7.842804606456025E-6
-0.11499999999999999      -8.83952090229317E-6
-0.1200000000000001       -9.907288863850762E-6
-0.12499999999999994      -1.1042949912692857E-5
-0.13000000000000006      -1.2240562977962171E-5
-0.13500000000000004      -1.3490937036854327E-5
-0.14000000000000004      -1.478124707271319E-5
-0.14500000000000002      -1.609477572345537E-5
-0.15                     -1.741086719781483E-5
-0.15499999999999997      -1.8702753276112485E-5
-0.1600000000000001       -1.9947753584753678E-5
-0.16499999999999995      -2.111500443857991E-5
-0.17000000000000007      -2.2174381839288007E-5
-0.1749999999999999       -2.3097615115147134E-5
-0.18000000000000002      -2.3859812983972463E-5
-0.18500000000000014      -2.4441540751663552E-5
-0.19                     -2.483058047843276E-5
-0.19500000000000012      -2.5023097303391775E-5
-0.19999999999999996      -2.5024011604886834E-5
-0.20500000000000007      -2.484646884978689E-5
-0.21000000000000005      -2.4510460203515626E-5
-0.21500000000000002      -2.4040807247616327E-5
-0.22000000000000003      -2.346483778675583E-5
-0.22499999999999998      -2.2810113778536374E-5
-0.22999999999999998      -2.210251972472799E-5
-0.2350000000000001       -2.1364903952222646E-5
-0.23999999999999994      -2.0616327932283847E-5
-0.24500000000000005      -1.9871861230163106E-5
-0.2499999999999999       -1.9142787364806086E-5
-0.255                    -1.8437063734213406E-5
-0.2600000000000001       -1.7759895447539E-5
-0.26499999999999996      -1.7114319851138013E-5
-0.2700000000000001       -1.6501738836349784E-5
-0.27499999999999997      -1.5922369272783912E-5
-0.2800000000000001       -1.5375604575505982E-5
-0.28500000000000003      -1.4860293423469304E-5
-0.29000000000000004      -1.4374947655231447E-5
-0.295                    -1.3917892987768609E-5
-0.3                      -1.3487375401079591E-5
